version 2
run General-0-20170130-18:58:04-8638
attr configname General
attr datetime 20170130-18:58:04
attr experiment General
attr inifile AODV_omnetpp.ini
attr iterationvars ""
attr iterationvars2 $repetition=0
attr measurement ""
attr network AODV_test
attr processid 8638
attr repetition 0
attr replication #0
attr resultdir results
attr runnumber 0
attr seedset 0

vector 6  AODV_test.fixhost[0].wlan[0].mgmt  dataQueueLen:vector  ETV
attr interpolationmode  sample-hold
attr title  "data queue length, vector"
vector 16  AODV_test.host[0].wlan[0].mgmt  dataQueueLen:vector  ETV
attr interpolationmode  sample-hold
attr title  "data queue length, vector"
vector 29  AODV_test.host[1].wlan[0].mgmt  dataQueueLen:vector  ETV
attr interpolationmode  sample-hold
attr title  "data queue length, vector"
vector 36  AODV_test.fixhost[0].wlan[0].mac  RadioState  ETV
attr enum  "IDLE=0, RECV=1, SLEEP=3, TRANSMIT=2"
attr enumname  RadioState
vector 35  AODV_test.fixhost[0].wlan[0].mac  State  ETV
attr enum  "BACKOFF=3, DEFER=1, IDLE=0, RECEIVE=8, WAITACK=4, WAITAIFS=2, WAITCTS=6, WAITMULTICAST=5, WAITSIFS=7"
attr enumname  Ieee80211Mac
vector 42  AODV_test.host[0].wlan[0].mac  RadioState  ETV
attr enum  "IDLE=0, RECV=1, SLEEP=3, TRANSMIT=2"
attr enumname  RadioState
vector 41  AODV_test.host[0].wlan[0].mac  State  ETV
attr enum  "BACKOFF=3, DEFER=1, IDLE=0, RECEIVE=8, WAITACK=4, WAITAIFS=2, WAITCTS=6, WAITMULTICAST=5, WAITSIFS=7"
attr enumname  Ieee80211Mac
vector 48  AODV_test.host[1].wlan[0].mac  RadioState  ETV
attr enum  "IDLE=0, RECV=1, SLEEP=3, TRANSMIT=2"
attr enumname  RadioState
vector 47  AODV_test.host[1].wlan[0].mac  State  ETV
attr enum  "BACKOFF=3, DEFER=1, IDLE=0, RECEIVE=8, WAITACK=4, WAITAIFS=2, WAITCTS=6, WAITMULTICAST=5, WAITSIFS=7"
attr enumname  Ieee80211Mac
vector 8  AODV_test.fixhost[0].wlan[0].radio  bitrate:vector  ETV
attr interpolationmode  sample-hold
attr title  "tx bitrate, vector"
attr unit  bps
vector 10  AODV_test.fixhost[0].wlan[0].radio  radioState:vector  ETV
attr interpolationmode  sample-hold
attr title  "radio state (enum), vector"
vector 9  AODV_test.fixhost[0].wlan[0].radio  channelNo:vector  ETV
attr interpolationmode  sample-hold
attr title  "channel no, vector"
vector 18  AODV_test.host[0].wlan[0].radio  bitrate:vector  ETV
attr interpolationmode  sample-hold
attr title  "tx bitrate, vector"
attr unit  bps
vector 20  AODV_test.host[0].wlan[0].radio  radioState:vector  ETV
attr interpolationmode  sample-hold
attr title  "radio state (enum), vector"
vector 19  AODV_test.host[0].wlan[0].radio  channelNo:vector  ETV
attr interpolationmode  sample-hold
attr title  "channel no, vector"
vector 31  AODV_test.host[1].wlan[0].radio  bitrate:vector  ETV
attr interpolationmode  sample-hold
attr title  "tx bitrate, vector"
attr unit  bps
vector 33  AODV_test.host[1].wlan[0].radio  radioState:vector  ETV
attr interpolationmode  sample-hold
attr title  "radio state (enum), vector"
vector 32  AODV_test.host[1].wlan[0].radio  channelNo:vector  ETV
attr interpolationmode  sample-hold
attr title  "channel no, vector"
vector 92  AODV_test.host[1].tcp  tcpRcvQueueBytes  ETV
vector 79  AODV_test.host[1].tcp  "advertised window"  ETV
vector 78  AODV_test.host[1].tcp  "receive window"  ETV
vector 81  AODV_test.host[1].tcp  "sent ack"  ETV
vector 50  AODV_test.host[1].wlan[0].mac  "throughput AC0"  ETV
vector 44  AODV_test.host[0].wlan[0].mac  "throughput AC0"  ETV
vector 46  AODV_test.host[0].wlan[0].radio  snirVector  ETV
vector 38  AODV_test.fixhost[0].wlan[0].mac  "throughput AC0"  ETV
vector 52  AODV_test.host[1].wlan[0].radio  snirVector  ETV
vector 40  AODV_test.fixhost[0].wlan[0].radio  snirVector  ETV
vector 39  AODV_test.fixhost[0].wlan[0].mac  "Mac delay AC0"  ETV
vector 45  AODV_test.host[0].wlan[0].mac  "Mac delay AC0"  ETV
vector 51  AODV_test.host[1].wlan[0].mac  "Mac delay AC0"  ETV
vector 58  AODV_test.fixhost[0].tcp  "rcvd seq"  ETV
vector 59  AODV_test.fixhost[0].tcp  "rcvd ack"  ETV
vector 55  AODV_test.fixhost[0].tcp  "advertised window"  ETV
vector 53  AODV_test.fixhost[0].tcp  "send window"  ETV
vector 68  AODV_test.fixhost[0].tcp  tcpRcvQueueBytes  ETV
vector 54  AODV_test.fixhost[0].tcp  "receive window"  ETV
vector 57  AODV_test.fixhost[0].tcp  "sent ack"  ETV
vector 82  AODV_test.host[1].tcp  "rcvd seq"  ETV
vector 83  AODV_test.host[1].tcp  "rcvd ack"  ETV
vector 77  AODV_test.host[1].tcp  "send window"  ETV
vector 23  AODV_test.host[1].tcpApp[0]  sentPk:vector(packetBytes)  ETV
attr interpolationmode  none
attr source  sentPk
attr title  "packets sent, vector(packetBytes)"
vector 80  AODV_test.host[1].tcp  "sent seq"  ETV
vector 84  AODV_test.host[1].tcp  "unacked bytes"  ETV
vector 60  AODV_test.fixhost[0].tcp  "unacked bytes"  ETV
vector 61  AODV_test.fixhost[0].tcp  "rcvd dupAcks"  ETV
vector 0  AODV_test.fixhost[0].tcpApp[0]  rcvdPk:vector(packetBytes)  ETV
attr interpolationmode  none
attr source  rcvdPk
attr title  "packets received, vector(packetBytes)"
vector 1  AODV_test.fixhost[0].tcpApp[0]  endToEndDelay:vector  ETV
attr interpolationmode  none
attr source  messageAge(rcvdPk)
attr title  "end-to-end delay, vector"
attr unit  s
vector 96  AODV_test.host[1].tcp  "measured RTT"  ETV
vector 97  AODV_test.host[1].tcp  "smoothed RTT"  ETV
vector 98  AODV_test.host[1].tcp  RTTVAR  ETV
vector 99  AODV_test.host[1].tcp  RTO  ETV
vector 94  AODV_test.host[1].tcp  cwnd  ETV
vector 85  AODV_test.host[1].tcp  "rcvd dupAcks"  ETV
0	921	15.215011822781	536
0	1066	15.217321056113	536
0	1099	15.217887156113	536
1	921	15.215011822781	0
1	1066	15.217321056113	0
1	1099	15.217887156113	0
6	0	0	0
8	0	0	54000000
9	0	0	0
10	0	0	0
10	39	1.005814318302	1
10	39	1.005814318302	1
10	48	1.006382318302	0
10	48	1.006382318302	0
10	85	1.32413190781	1
10	85	1.32413190781	1
10	94	1.32469990781	0
10	94	1.32469990781	0
10	131	1.804986863502	1
10	131	1.804986863502	1
10	140	1.805554863502	0
10	140	1.805554863502	0
10	181	2.445069198108	1
10	181	2.445069198108	1
10	190	2.445637198108	0
10	190	2.445637198108	0
10	231	3.242628334691	1
10	231	3.242628334691	1
10	240	3.243196334691	0
10	240	3.243196334691	0
10	293	6.208157538229	1
10	293	6.208157538229	1
10	302	6.208725538229	0
10	302	6.208725538229	0
10	373	10.002358839511	1
10	373	10.002358839511	1
10	382	10.002926839511	0
10	382	10.002926839511	0
10	419	10.325914202702	1
10	419	10.325914202702	1
10	428	10.326482202702	0
10	428	10.326482202702	0
10	465	10.80823190254	1
10	465	10.80823190254	1
10	474	10.80879990254	0
10	474	10.80879990254	0
10	515	11.444033869675	1
10	515	11.444033869675	1
10	524	11.444601869675	0
10	524	11.444601869675	0
10	566	12.243819372948	1
10	566	12.243819372948	1
10	575	12.244387372948	0
10	575	12.244387372948	0
10	624	15.210180422783	1
10	624	15.210180422783	1
10	633	15.210748422783	0
10	633	15.210748422783	0
10	646	15.210776422783	2
10	646	15.210776422783	2
10	649	15.210818422783	0
10	649	15.210818422783	0
10	665	15.210828522783	1
10	665	15.210828522783	1
10	669	15.211076522783	0
10	669	15.211076522783	0
10	676	15.211113522783	1
10	676	15.211113522783	1
10	689	15.211155522783	0
10	689	15.211155522783	0
10	721	15.211637589449	1
10	721	15.211637589449	1
10	725	15.211885589449	0
10	725	15.211885589449	0
10	734	15.212039589449	1
10	734	15.212039589449	1
10	739	15.212081589449	0
10	739	15.212081589449	0
10	751	15.212091589449	2
10	751	15.212091589449	2
10	755	15.212339589449	0
10	755	15.212339589449	0
10	765	15.212646589449	2
10	765	15.212646589449	2
10	768	15.212688589449	0
10	768	15.212688589449	0
10	781	15.212698689449	1
10	781	15.212698689449	1
10	785	15.212946689449	0
10	785	15.212946689449	0
10	792	15.213028689449	1
10	792	15.213028689449	1
10	813	15.213070689449	0
10	813	15.213070689449	0
10	847	15.213552756115	1
10	847	15.213552756115	1
10	851	15.213800756115	0
10	851	15.213800756115	0
10	858	15.213846756115	1
10	858	15.213846756115	1
10	863	15.213888756115	0
10	863	15.213888756115	0
10	871	15.213898756115	2
10	871	15.213898756115	2
10	875	15.214146756115	0
10	875	15.214146756115	0
10	898	15.214401822781	1
10	898	15.214401822781	1
10	902	15.214649822781	0
10	902	15.214649822781	0
10	910	15.214893822781	1
10	910	15.214893822781	1
10	915	15.215011822781	0
10	915	15.215011822781	0
10	928	15.215021822781	2
10	928	15.215021822781	2
10	932	15.215269822781	0
10	932	15.215269822781	0
10	940	15.215495822781	2
10	940	15.215495822781	2
10	943	15.215537822781	0
10	943	15.215537822781	0
10	956	15.215547922781	1
10	956	15.215547922781	1
10	960	15.215795922781	0
10	960	15.215795922781	0
10	967	15.215895922781	1
10	967	15.215895922781	1
10	985	15.215937922781	0
10	985	15.215937922781	0
10	1017	15.216351989447	1
10	1017	15.216351989447	1
10	1021	15.216599989447	0
10	1021	15.216599989447	0
10	1044	15.216801056113	1
10	1044	15.216801056113	1
10	1048	15.217049056113	0
10	1048	15.217049056113	0
10	1055	15.217203056113	1
10	1055	15.217203056113	1
10	1060	15.217321056113	0
10	1060	15.217321056113	0
10	1073	15.217331056113	2
10	1073	15.217331056113	2
10	1077	15.217579056113	0
10	1077	15.217579056113	0
10	1088	15.217769156113	1
10	1088	15.217769156113	1
10	1093	15.217887156113	0
10	1093	15.217887156113	0
10	1106	15.217897156113	2
10	1106	15.217897156113	2
10	1110	15.218145156113	0
10	1110	15.218145156113	0
10	1116	15.218173156113	2
10	1116	15.218173156113	2
10	1120	15.218215156113	0
10	1120	15.218215156113	0
10	1133	15.218225256113	1
10	1133	15.218225256113	1
10	1137	15.218473256113	0
10	1137	15.218473256113	0
10	1144	15.218564256113	1
10	1144	15.218564256113	1
10	1162	15.218606256113	0
10	1162	15.218606256113	0
10	1178	15.219027256113	2
10	1178	15.219027256113	2
10	1181	15.219069256113	0
10	1181	15.219069256113	0
10	1194	15.219079356113	1
10	1194	15.219079356113	1
10	1198	15.219327356113	0
10	1198	15.219327356113	0
10	1206	15.219355356113	1
10	1206	15.219355356113	1
10	1222	15.219397356113	0
10	1222	15.219397356113	0
10	1256	15.220045422779	1
10	1256	15.220045422779	1
10	1261	15.220293422779	0
10	1261	15.220293422779	0
16	0	0	0
18	0	0	54000000
19	0	0	0
20	0	0	0
20	18	1.004184672532	1
20	18	1.004184672532	1
20	22	1.004752672532	0
20	22	1.004752672532	0
20	37	1.005814268302	2
20	37	1.005814268302	2
20	41	1.006382268302	0
20	41	1.006382268302	0
20	64	1.320477138503	1
20	64	1.320477138503	1
20	68	1.321045138503	0
20	68	1.321045138503	0
20	83	1.32413185781	2
20	83	1.32413185781	2
20	87	1.32469985781	0
20	87	1.32469985781	0
20	110	1.801798723546	1
20	110	1.801798723546	1
20	114	1.802366723546	0
20	114	1.802366723546	0
20	129	1.804986813502	2
20	129	1.804986813502	2
20	133	1.805554813502	0
20	133	1.805554813502	0
20	160	2.444069441764	1
20	160	2.444069441764	1
20	164	2.444637441764	0
20	164	2.444637441764	0
20	179	2.445069148108	2
20	179	2.445069148108	2
20	183	2.445637148108	0
20	183	2.445637148108	0
20	210	3.241240735369	1
20	210	3.241240735369	1
20	214	3.241808735369	0
20	214	3.241808735369	0
20	229	3.242628284691	2
20	229	3.242628284691	2
20	233	3.243196284691	0
20	233	3.243196284691	0
20	272	6.204417548694	1
20	272	6.204417548694	1
20	276	6.204985548694	0
20	276	6.204985548694	0
20	291	6.208157488229	2
20	291	6.208157488229	2
20	295	6.208725488229	0
20	295	6.208725488229	0
20	352	10.000494848508	1
20	352	10.000494848508	1
20	356	10.001062848508	0
20	356	10.001062848508	0
20	371	10.002358789511	2
20	371	10.002358789511	2
20	375	10.002926789511	0
20	375	10.002926789511	0
20	398	10.324490088428	1
20	398	10.324490088428	1
20	402	10.325058088428	0
20	402	10.325058088428	0
20	417	10.325914152702	2
20	417	10.325914152702	2
20	421	10.326482152702	0
20	421	10.326482152702	0
20	444	10.802834718931	1
20	444	10.802834718931	1
20	448	10.803402718931	0
20	448	10.803402718931	0
20	463	10.80823185254	2
20	463	10.80823185254	2
20	467	10.80879985254	0
20	467	10.80879985254	0
20	494	11.442415041947	1
20	494	11.442415041947	1
20	498	11.442983041947	0
20	498	11.442983041947	0
20	513	11.444033819675	2
20	513	11.444033819675	2
20	517	11.444601819675	0
20	517	11.444601819675	0
20	546	12.243108657493	1
20	546	12.243108657493	1
20	550	12.243676657493	0
20	550	12.243676657493	0
20	564	12.243819322948	2
20	564	12.243819322948	2
20	568	12.244387322948	0
20	568	12.244387322948	0
20	603	15.204656250766	1
20	603	15.204656250766	1
20	607	15.205224250766	0
20	607	15.205224250766	0
20	622	15.210180372783	2
20	622	15.210180372783	2
20	626	15.210748372783	0
20	626	15.210748372783	0
20	647	15.210776472783	1
20	647	15.210776472783	1
20	650	15.210818472783	0
20	650	15.210818472783	0
20	663	15.210828472783	2
20	663	15.210828472783	2
20	666	15.211076472783	0
20	666	15.211076472783	0
20	674	15.211113472783	2
20	674	15.211113472783	2
20	677	15.211155472783	0
20	677	15.211155472783	0
20	694	15.211165539449	1
20	694	15.211165539449	1
20	698	15.211413539449	0
20	698	15.211413539449	0
20	706	15.211585539449	1
20	706	15.211585539449	1
20	709	15.211627539449	0
20	709	15.211627539449	0
20	719	15.211637539449	2
20	719	15.211637539449	2
20	722	15.211885539449	0
20	722	15.211885539449	0
20	732	15.212039539449	2
20	732	15.212039539449	2
20	735	15.212081539449	0
20	735	15.212081539449	0
20	752	15.212091639449	1
20	752	15.212091639449	1
20	756	15.212339639449	0
20	756	15.212339639449	0
20	766	15.212646639449	1
20	766	15.212646639449	1
20	769	15.212688639449	0
20	769	15.212688639449	0
20	779	15.212698639449	2
20	779	15.212698639449	2
20	782	15.212946639449	0
20	782	15.212946639449	0
20	790	15.213028639449	2
20	790	15.213028639449	2
20	793	15.213070639449	0
20	793	15.213070639449	0
20	818	15.213080706115	1
20	818	15.213080706115	1
20	822	15.213328706115	0
20	822	15.213328706115	0
20	832	15.213500706115	1
20	832	15.213500706115	1
20	835	15.213542706115	0
20	835	15.213542706115	0
20	845	15.213552706115	2
20	845	15.213552706115	2
20	848	15.213800706115	0
20	848	15.213800706115	0
20	856	15.213846706115	2
20	856	15.213846706115	2
20	859	15.213888706115	0
20	859	15.213888706115	0
20	872	15.213898806115	1
20	872	15.213898806115	1
20	876	15.214146806115	0
20	876	15.214146806115	0
20	883	15.214273772781	1
20	883	15.214273772781	1
20	886	15.214391772781	0
20	886	15.214391772781	0
20	896	15.214401772781	2
20	896	15.214401772781	2
20	899	15.214649772781	0
20	899	15.214649772781	0
20	908	15.214893772781	2
20	908	15.214893772781	2
20	911	15.215011772781	0
20	911	15.215011772781	0
20	929	15.215021872781	1
20	929	15.215021872781	1
20	933	15.215269872781	0
20	933	15.215269872781	0
20	941	15.215495872781	1
20	941	15.215495872781	1
20	944	15.215537872781	0
20	944	15.215537872781	0
20	954	15.215547872781	2
20	954	15.215547872781	2
20	957	15.215795872781	0
20	957	15.215795872781	0
20	965	15.215895872781	2
20	965	15.215895872781	2
20	968	15.215937872781	0
20	968	15.215937872781	0
20	990	15.215947939447	1
20	990	15.215947939447	1
20	994	15.216195939447	0
20	994	15.216195939447	0
20	1002	15.216223939447	1
20	1002	15.216223939447	1
20	1005	15.216341939447	0
20	1005	15.216341939447	0
20	1015	15.216351939447	2
20	1015	15.216351939447	2
20	1018	15.216599939447	0
20	1018	15.216599939447	0
20	1028	15.216673006113	1
20	1028	15.216673006113	1
20	1032	15.216791006113	0
20	1032	15.216791006113	0
20	1042	15.216801006113	2
20	1042	15.216801006113	2
20	1045	15.217049006113	0
20	1045	15.217049006113	0
20	1053	15.217203006113	2
20	1053	15.217203006113	2
20	1056	15.217321006113	0
20	1056	15.217321006113	0
20	1074	15.217331106113	1
20	1074	15.217331106113	1
20	1078	15.217579106113	0
20	1078	15.217579106113	0
20	1086	15.217769106113	2
20	1086	15.217769106113	2
20	1089	15.217887106113	0
20	1089	15.217887106113	0
20	1107	15.217897206113	1
20	1107	15.217897206113	1
20	1111	15.218145206113	0
20	1111	15.218145206113	0
20	1118	15.218173206113	1
20	1118	15.218173206113	1
20	1121	15.218215206113	0
20	1121	15.218215206113	0
20	1131	15.218225206113	2
20	1131	15.218225206113	2
20	1134	15.218473206113	0
20	1134	15.218473206113	0
20	1142	15.218564206113	2
20	1142	15.218564206113	2
20	1145	15.218606206113	0
20	1145	15.218606206113	0
20	1167	15.218616272779	1
20	1167	15.218616272779	1
20	1171	15.218864272779	0
20	1171	15.218864272779	0
20	1179	15.219027306113	1
20	1179	15.219027306113	1
20	1182	15.219069306113	0
20	1182	15.219069306113	0
20	1192	15.219079306113	2
20	1192	15.219079306113	2
20	1195	15.219327306113	0
20	1195	15.219327306113	0
20	1202	15.219355306113	2
20	1202	15.219355306113	2
20	1207	15.219397306113	0
20	1207	15.219397306113	0
20	1227	15.219407372779	1
20	1227	15.219407372779	1
20	1231	15.219655372779	0
20	1231	15.219655372779	0
20	1241	15.219917372779	1
20	1241	15.219917372779	1
20	1244	15.220035372779	0
20	1244	15.220035372779	0
20	1254	15.220045372779	2
20	1254	15.220045372779	2
20	1257	15.220293372779	0
20	1257	15.220293372779	0
20	1267	15.220366439445	1
20	1267	15.220366439445	1
20	1270	15.220484439445	0
20	1270	15.220484439445	0
23	801	15.213070672782	1048576
29	0	0	0
29	1220	15.219397339446	1
29	1221	15.219397339446	2
29	1259	15.220293406112	1
31	0	0	54000000
32	0	0	0
33	0	0	0
33	17	1.004184639199	2
33	17	1.004184639199	2
33	21	1.004752639199	0
33	21	1.004752639199	0
33	38	1.005814301635	1
33	38	1.005814301635	1
33	42	1.006382301635	0
33	42	1.006382301635	0
33	63	1.32047710517	2
33	63	1.32047710517	2
33	67	1.32104510517	0
33	67	1.32104510517	0
33	84	1.324131891143	1
33	84	1.324131891143	1
33	88	1.324699891143	0
33	88	1.324699891143	0
33	109	1.801798690213	2
33	109	1.801798690213	2
33	113	1.802366690213	0
33	113	1.802366690213	0
33	130	1.804986846835	1
33	130	1.804986846835	1
33	134	1.805554846835	0
33	134	1.805554846835	0
33	159	2.444069408431	2
33	159	2.444069408431	2
33	163	2.444637408431	0
33	163	2.444637408431	0
33	180	2.445069181441	1
33	180	2.445069181441	1
33	184	2.445637181441	0
33	184	2.445637181441	0
33	209	3.241240702036	2
33	209	3.241240702036	2
33	213	3.241808702036	0
33	213	3.241808702036	0
33	230	3.242628318024	1
33	230	3.242628318024	1
33	234	3.243196318024	0
33	234	3.243196318024	0
33	271	6.204417515361	2
33	271	6.204417515361	2
33	275	6.204985515361	0
33	275	6.204985515361	0
33	292	6.208157521562	1
33	292	6.208157521562	1
33	296	6.208725521562	0
33	296	6.208725521562	0
33	351	10.000494815175	2
33	351	10.000494815175	2
33	355	10.001062815175	0
33	355	10.001062815175	0
33	372	10.002358822844	1
33	372	10.002358822844	1
33	376	10.002926822844	0
33	376	10.002926822844	0
33	397	10.324490055095	2
33	397	10.324490055095	2
33	401	10.325058055095	0
33	401	10.325058055095	0
33	418	10.325914186035	1
33	418	10.325914186035	1
33	422	10.326482186035	0
33	422	10.326482186035	0
33	443	10.802834685598	2
33	443	10.802834685598	2
33	447	10.803402685598	0
33	447	10.803402685598	0
33	464	10.808231885873	1
33	464	10.808231885873	1
33	468	10.808799885873	0
33	468	10.808799885873	0
33	493	11.442415008614	2
33	493	11.442415008614	2
33	497	11.442983008614	0
33	497	11.442983008614	0
33	514	11.444033853008	1
33	514	11.444033853008	1
33	518	11.444601853008	0
33	518	11.444601853008	0
33	545	12.24310862416	2
33	545	12.24310862416	2
33	549	12.24367662416	0
33	549	12.24367662416	0
33	565	12.243819356281	1
33	565	12.243819356281	1
33	569	12.244387356281	0
33	569	12.244387356281	0
33	602	15.204656217433	2
33	602	15.204656217433	2
33	606	15.205224217433	0
33	606	15.205224217433	0
33	623	15.210180406116	1
33	623	15.210180406116	1
33	627	15.210748406116	0
33	627	15.210748406116	0
33	664	15.210828506116	1
33	664	15.210828506116	1
33	667	15.211076506116	0
33	667	15.211076506116	0
33	675	15.211113506116	1
33	675	15.211113506116	1
33	678	15.211155506116	0
33	678	15.211155506116	0
33	693	15.211165506116	2
33	693	15.211165506116	2
33	696	15.211413506116	0
33	696	15.211413506116	0
33	705	15.211585506116	2
33	705	15.211585506116	2
33	708	15.211627506116	0
33	708	15.211627506116	0
33	720	15.211637572782	1
33	720	15.211637572782	1
33	723	15.211885572782	0
33	723	15.211885572782	0
33	733	15.212039572782	1
33	733	15.212039572782	1
33	736	15.212081572782	0
33	736	15.212081572782	0
33	780	15.212698672782	1
33	780	15.212698672782	1
33	783	15.212946672782	0
33	783	15.212946672782	0
33	791	15.213028672782	1
33	791	15.213028672782	1
33	794	15.213070672782	0
33	794	15.213070672782	0
33	817	15.213080672782	2
33	817	15.213080672782	2
33	820	15.213328672782	0
33	820	15.213328672782	0
33	831	15.213500672782	2
33	831	15.213500672782	2
33	834	15.213542672782	0
33	834	15.213542672782	0
33	846	15.213552739448	1
33	846	15.213552739448	1
33	849	15.213800739448	0
33	849	15.213800739448	0
33	857	15.213846739448	1
33	857	15.213846739448	1
33	860	15.213888739448	0
33	860	15.213888739448	0
33	882	15.214273739448	2
33	882	15.214273739448	2
33	885	15.214391739448	0
33	885	15.214391739448	0
33	897	15.214401806114	1
33	897	15.214401806114	1
33	900	15.214649806114	0
33	900	15.214649806114	0
33	909	15.214893806114	1
33	909	15.214893806114	1
33	912	15.215011806114	0
33	912	15.215011806114	0
33	955	15.215547906114	1
33	955	15.215547906114	1
33	958	15.215795906114	0
33	958	15.215795906114	0
33	966	15.215895906114	1
33	966	15.215895906114	1
33	969	15.215937906114	0
33	969	15.215937906114	0
33	989	15.215947906114	2
33	989	15.215947906114	2
33	992	15.216195906114	0
33	992	15.216195906114	0
33	999	15.216223906114	2
33	999	15.216223906114	2
33	1004	15.216341906114	0
33	1004	15.216341906114	0
33	1016	15.21635197278	1
33	1016	15.21635197278	1
33	1019	15.21659997278	0
33	1019	15.21659997278	0
33	1027	15.21667297278	2
33	1027	15.21667297278	2
33	1031	15.21679097278	0
33	1031	15.21679097278	0
33	1043	15.216801039446	1
33	1043	15.216801039446	1
33	1046	15.217049039446	0
33	1046	15.217049039446	0
33	1054	15.217203039446	1
33	1054	15.217203039446	1
33	1057	15.217321039446	0
33	1057	15.217321039446	0
33	1087	15.217769139446	1
33	1087	15.217769139446	1
33	1090	15.217887139446	0
33	1090	15.217887139446	0
33	1132	15.218225239446	1
33	1132	15.218225239446	1
33	1135	15.218473239446	0
33	1135	15.218473239446	0
33	1143	15.218564239446	1
33	1143	15.218564239446	1
33	1146	15.218606239446	0
33	1146	15.218606239446	0
33	1166	15.218616239446	2
33	1166	15.218616239446	2
33	1169	15.218864239446	0
33	1169	15.218864239446	0
33	1193	15.219079339446	1
33	1193	15.219079339446	1
33	1196	15.219327339446	0
33	1196	15.219327339446	0
33	1204	15.219355339446	1
33	1204	15.219355339446	1
33	1208	15.219397339446	0
33	1208	15.219397339446	0
33	1226	15.219407339446	2
33	1226	15.219407339446	2
33	1229	15.219655339446	0
33	1229	15.219655339446	0
33	1240	15.219917339446	2
33	1240	15.219917339446	2
33	1243	15.220035339446	0
33	1243	15.220035339446	0
33	1255	15.220045406112	1
33	1255	15.220045406112	1
33	1258	15.220293406112	0
33	1258	15.220293406112	0
33	1266	15.220366406112	2
33	1266	15.220366406112	2
33	1269	15.220484406112	0
33	1269	15.220484406112	0
35	0	0	0
35	0	0	0
35	39	1.005814318302	0
35	39	1.005814318302	0
35	48	1.006382318302	0
35	48	1.006382318302	0
35	49	1.006382318302	0
35	49	1.006382318302	0
35	85	1.32413190781	0
35	85	1.32413190781	0
35	94	1.32469990781	0
35	94	1.32469990781	0
35	95	1.32469990781	0
35	95	1.32469990781	0
35	131	1.804986863502	0
35	131	1.804986863502	0
35	140	1.805554863502	0
35	140	1.805554863502	0
35	141	1.805554863502	0
35	141	1.805554863502	0
35	181	2.445069198108	0
35	181	2.445069198108	0
35	190	2.445637198108	0
35	190	2.445637198108	0
35	191	2.445637198108	0
35	191	2.445637198108	0
35	231	3.242628334691	0
35	231	3.242628334691	0
35	240	3.243196334691	0
35	240	3.243196334691	0
35	241	3.243196334691	0
35	241	3.243196334691	0
35	293	6.208157538229	0
35	293	6.208157538229	0
35	302	6.208725538229	0
35	302	6.208725538229	0
35	303	6.208725538229	0
35	303	6.208725538229	0
35	373	10.002358839511	0
35	373	10.002358839511	0
35	382	10.002926839511	0
35	382	10.002926839511	0
35	383	10.002926839511	0
35	383	10.002926839511	0
35	419	10.325914202702	0
35	419	10.325914202702	0
35	428	10.326482202702	0
35	428	10.326482202702	0
35	429	10.326482202702	0
35	429	10.326482202702	0
35	465	10.80823190254	0
35	465	10.80823190254	0
35	474	10.80879990254	0
35	474	10.80879990254	0
35	475	10.80879990254	0
35	475	10.80879990254	0
35	515	11.444033869675	0
35	515	11.444033869675	0
35	524	11.444601869675	0
35	524	11.444601869675	0
35	525	11.444601869675	0
35	525	11.444601869675	0
35	566	12.243819372948	0
35	566	12.243819372948	0
35	575	12.244387372948	0
35	575	12.244387372948	0
35	576	12.244387372948	0
35	576	12.244387372948	0
35	624	15.210180422783	0
35	624	15.210180422783	0
35	633	15.210748422783	0
35	633	15.210748422783	0
35	634	15.210748422783	0
35	634	15.210748422783	0
35	643	15.210748422783	0
35	643	15.210748422783	2
35	645	15.210776422783	2
35	645	15.210776422783	4
35	646	15.210776422783	4
35	646	15.210776422783	4
35	649	15.210818422783	4
35	649	15.210818422783	4
35	665	15.210828522783	4
35	665	15.210828522783	4
35	669	15.211076522783	4
35	669	15.211076522783	4
35	670	15.211076522783	4
35	670	15.211076522783	2
35	672	15.211104522783	2
35	672	15.211104522783	3
35	676	15.211113522783	3
35	676	15.211113522783	1
35	689	15.211155522783	1
35	689	15.211155522783	2
35	690	15.211155522783	2
35	690	15.211155522783	1
35	691	15.211155522783	1
35	691	15.211155522783	1
35	697	15.211413522783	1
35	697	15.211413522783	2
35	702	15.211441522783	2
35	702	15.211441522783	3
35	721	15.211637589449	3
35	721	15.211637589449	1
35	725	15.211885589449	1
35	725	15.211885589449	2
35	726	15.211885589449	2
35	726	15.211885589449	2
35	729	15.211913589449	2
35	729	15.211913589449	3
35	730	15.211940589449	3
35	730	15.211940589449	0
35	734	15.212039589449	0
35	734	15.212039589449	0
35	739	15.212081589449	0
35	739	15.212081589449	0
35	740	15.212081589449	0
35	740	15.212081589449	7
35	750	15.212091589449	7
35	750	15.212091589449	2
35	751	15.212091589449	2
35	751	15.212091589449	1
35	755	15.212339589449	1
35	755	15.212339589449	2
35	760	15.212367589449	2
35	760	15.212367589449	3
35	764	15.212646589449	3
35	764	15.212646589449	4
35	765	15.212646589449	4
35	765	15.212646589449	4
35	768	15.212688589449	4
35	768	15.212688589449	4
35	781	15.212698689449	4
35	781	15.212698689449	4
35	785	15.212946689449	4
35	785	15.212946689449	4
35	786	15.212946689449	4
35	786	15.212946689449	2
35	788	15.212974689449	2
35	788	15.212974689449	3
35	792	15.213028689449	3
35	792	15.213028689449	1
35	813	15.213070689449	1
35	813	15.213070689449	2
35	814	15.213070689449	2
35	814	15.213070689449	1
35	815	15.213070689449	1
35	815	15.213070689449	1
35	821	15.213328689449	1
35	821	15.213328689449	2
35	826	15.213356689449	2
35	826	15.213356689449	3
35	829	15.213437689449	3
35	829	15.213437689449	0
35	847	15.213552756115	0
35	847	15.213552756115	0
35	851	15.213800756115	0
35	851	15.213800756115	0
35	852	15.213800756115	0
35	852	15.213800756115	0
35	858	15.213846756115	0
35	858	15.213846756115	0
35	863	15.213888756115	0
35	863	15.213888756115	0
35	864	15.213888756115	0
35	864	15.213888756115	7
35	870	15.213898756115	7
35	870	15.213898756115	0
35	871	15.213898756115	0
35	871	15.213898756115	0
35	875	15.214146756115	0
35	875	15.214146756115	0
35	898	15.214401822781	0
35	898	15.214401822781	0
35	902	15.214649822781	0
35	902	15.214649822781	0
35	903	15.214649822781	0
35	903	15.214649822781	0
35	910	15.214893822781	0
35	910	15.214893822781	0
35	915	15.215011822781	0
35	915	15.215011822781	0
35	916	15.215011822781	0
35	916	15.215011822781	7
35	927	15.215021822781	7
35	927	15.215021822781	2
35	928	15.215021822781	2
35	928	15.215021822781	1
35	932	15.215269822781	1
35	932	15.215269822781	2
35	936	15.215297822781	2
35	936	15.215297822781	3
35	939	15.215495822781	3
35	939	15.215495822781	4
35	940	15.215495822781	4
35	940	15.215495822781	4
35	943	15.215537822781	4
35	943	15.215537822781	4
35	956	15.215547922781	4
35	956	15.215547922781	4
35	960	15.215795922781	4
35	960	15.215795922781	4
35	961	15.215795922781	4
35	961	15.215795922781	2
35	963	15.215823922781	2
35	963	15.215823922781	3
35	967	15.215895922781	3
35	967	15.215895922781	1
35	985	15.215937922781	1
35	985	15.215937922781	2
35	986	15.215937922781	2
35	986	15.215937922781	1
35	987	15.215937922781	1
35	987	15.215937922781	1
35	993	15.216195922781	1
35	993	15.216195922781	2
35	1000	15.216223922781	2
35	1000	15.216223922781	3
35	1017	15.216351989447	3
35	1017	15.216351989447	1
35	1021	15.216599989447	1
35	1021	15.216599989447	2
35	1022	15.216599989447	2
35	1022	15.216599989447	2
35	1025	15.216627989447	2
35	1025	15.216627989447	3
35	1030	15.216708989447	3
35	1030	15.216708989447	0
35	1044	15.216801056113	0
35	1044	15.216801056113	0
35	1048	15.217049056113	0
35	1048	15.217049056113	0
35	1049	15.217049056113	0
35	1049	15.217049056113	0
35	1055	15.217203056113	0
35	1055	15.217203056113	0
35	1060	15.217321056113	0
35	1060	15.217321056113	0
35	1061	15.217321056113	0
35	1061	15.217321056113	7
35	1072	15.217331056113	7
35	1072	15.217331056113	2
35	1073	15.217331056113	2
35	1073	15.217331056113	1
35	1077	15.217579056113	1
35	1077	15.217579056113	2
35	1082	15.217607056113	2
35	1082	15.217607056113	3
35	1088	15.217769156113	3
35	1088	15.217769156113	1
35	1093	15.217887156113	1
35	1093	15.217887156113	2
35	1094	15.217887156113	2
35	1094	15.217887156113	7
35	1105	15.217897156113	7
35	1105	15.217897156113	2
35	1106	15.217897156113	2
35	1106	15.217897156113	1
35	1110	15.218145156113	1
35	1110	15.218145156113	2
35	1114	15.218173156113	2
35	1114	15.218173156113	3
35	1115	15.218173156113	3
35	1115	15.218173156113	4
35	1116	15.218173156113	4
35	1116	15.218173156113	4
35	1120	15.218215156113	4
35	1120	15.218215156113	4
35	1133	15.218225256113	4
35	1133	15.218225256113	4
35	1137	15.218473256113	4
35	1137	15.218473256113	4
35	1138	15.218473256113	4
35	1138	15.218473256113	2
35	1140	15.218501256113	2
35	1140	15.218501256113	3
35	1144	15.218564256113	3
35	1144	15.218564256113	1
35	1162	15.218606256113	1
35	1162	15.218606256113	2
35	1163	15.218606256113	2
35	1163	15.218606256113	1
35	1164	15.218606256113	1
35	1164	15.218606256113	1
35	1170	15.218864256113	1
35	1170	15.218864256113	2
35	1175	15.218892256113	2
35	1175	15.218892256113	3
35	1177	15.219027256113	3
35	1177	15.219027256113	4
35	1178	15.219027256113	4
35	1178	15.219027256113	4
35	1181	15.219069256113	4
35	1181	15.219069256113	4
35	1194	15.219079356113	4
35	1194	15.219079356113	4
35	1198	15.219327356113	4
35	1198	15.219327356113	4