version 2
run Test-9-20171016-14:21:17-9450
attr configname Test
attr datetime 20171016-14:21:17
attr experiment "\"Simulation Test\""
attr inifile BasicConfig.ini
attr iterationvars ""
attr iterationvars2 $repetition=9
attr measurement "\"Peers: $peers, Rate: $rate\""
attr network BasicTopology
attr processid 9450
attr repetition 9
attr replication #9
attr resultdir results
attr runnumber 9
attr seedset 9

vector 1  BasicTopology  EnterSwarm:vector  ETV
attr ""  ""
attr source  SwarmManager_EnterSwarm
attr title  "Enter Swarm Time, vector"
vector 3  BasicTopology  SwarmEmittedPeerId:vector  ETV
attr ""  ""
attr source  SwarmManager_EmittedPeerId
attr title  "Peer Swarm Signal Emitted, vector"
vector 9  BasicTopology.peer[1].bitTorrentApp.bitTorrentClient  DownloadComplete_Test:vector  ETV
attr source  BitTorrentClient_DownloadComplete_Test
attr title  "Descargas completas (prueba), vector"
vector 0  BasicTopology  DownloadComplete_Test:vector  ETV
attr source  BitTorrentClient_DownloadComplete_Test
attr title  "Tiempo de desacarga (prueba), vector"
vector 11  BasicTopology.peer[2].bitTorrentApp.bitTorrentClient  DownloadComplete_Test:vector  ETV
attr source  BitTorrentClient_DownloadComplete_Test
attr title  "Descargas completas (prueba), vector"
vector 13  BasicTopology.peer[3].bitTorrentApp.bitTorrentClient  DownloadComplete_Test:vector  ETV
attr source  BitTorrentClient_DownloadComplete_Test
attr title  "Descargas completas (prueba), vector"
vector 15  BasicTopology.peer[4].bitTorrentApp.bitTorrentClient  DownloadComplete_Test:vector  ETV
attr source  BitTorrentClient_DownloadComplete_Test
attr title  "Descargas completas (prueba), vector"
vector 17  BasicTopology.peer[5].bitTorrentApp.bitTorrentClient  DownloadComplete_Test:vector  ETV
attr source  BitTorrentClient_DownloadComplete_Test
attr title  "Descargas completas (prueba), vector"
vector 19  BasicTopology.peer[6].bitTorrentApp.bitTorrentClient  DownloadComplete_Test:vector  ETV
attr source  BitTorrentClient_DownloadComplete_Test
attr title  "Descargas completas (prueba), vector"
vector 21  BasicTopology.peer[7].bitTorrentApp.bitTorrentClient  DownloadComplete_Test:vector  ETV
attr source  BitTorrentClient_DownloadComplete_Test
attr title  "Descargas completas (prueba), vector"
vector 23  BasicTopology.peer[8].bitTorrentApp.bitTorrentClient  DownloadComplete_Test:vector  ETV
attr source  BitTorrentClient_DownloadComplete_Test
attr title  "Descargas completas (prueba), vector"
vector 25  BasicTopology.peer[9].bitTorrentApp.bitTorrentClient  DownloadComplete_Test:vector  ETV
attr source  BitTorrentClient_DownloadComplete_Test
attr title  "Descargas completas (prueba), vector"
vector 27  BasicTopology.peer[10].bitTorrentApp.bitTorrentClient  DownloadComplete_Test:vector  ETV
attr source  BitTorrentClient_DownloadComplete_Test
attr title  "Descargas completas (prueba), vector"
vector 29  BasicTopology.peer[11].bitTorrentApp.bitTorrentClient  DownloadComplete_Test:vector  ETV
attr source  BitTorrentClient_DownloadComplete_Test
attr title  "Descargas completas (prueba), vector"
vector 31  BasicTopology.peer[12].bitTorrentApp.bitTorrentClient  DownloadComplete_Test:vector  ETV
attr source  BitTorrentClient_DownloadComplete_Test
attr title  "Descargas completas (prueba), vector"
vector 33  BasicTopology.peer[13].bitTorrentApp.bitTorrentClient  DownloadComplete_Test:vector  ETV
attr source  BitTorrentClient_DownloadComplete_Test
attr title  "Descargas completas (prueba), vector"
vector 35  BasicTopology.peer[14].bitTorrentApp.bitTorrentClient  DownloadComplete_Test:vector  ETV
attr source  BitTorrentClient_DownloadComplete_Test
attr title  "Descargas completas (prueba), vector"
vector 37  BasicTopology.peer[15].bitTorrentApp.bitTorrentClient  DownloadComplete_Test:vector  ETV
attr source  BitTorrentClient_DownloadComplete_Test
attr title  "Descargas completas (prueba), vector"
vector 39  BasicTopology.peer[16].bitTorrentApp.bitTorrentClient  DownloadComplete_Test:vector  ETV
attr source  BitTorrentClient_DownloadComplete_Test
attr title  "Descargas completas (prueba), vector"
vector 41  BasicTopology.peer[17].bitTorrentApp.bitTorrentClient  DownloadComplete_Test:vector  ETV
attr source  BitTorrentClient_DownloadComplete_Test
attr title  "Descargas completas (prueba), vector"
vector 43  BasicTopology.peer[18].bitTorrentApp.bitTorrentClient  DownloadComplete_Test:vector  ETV
attr source  BitTorrentClient_DownloadComplete_Test
attr title  "Descargas completas (prueba), vector"
vector 47  BasicTopology.peer[20].bitTorrentApp.bitTorrentClient  DownloadComplete_Test:vector  ETV
attr source  BitTorrentClient_DownloadComplete_Test
attr title  "Descargas completas (prueba), vector"
vector 49  BasicTopology.peer[21].bitTorrentApp.bitTorrentClient  DownloadComplete_Test:vector  ETV
attr source  BitTorrentClient_DownloadComplete_Test
attr title  "Descargas completas (prueba), vector"
vector 51  BasicTopology.peer[22].bitTorrentApp.bitTorrentClient  DownloadComplete_Test:vector  ETV
attr source  BitTorrentClient_DownloadComplete_Test
attr title  "Descargas completas (prueba), vector"
vector 53  BasicTopology.peer[23].bitTorrentApp.bitTorrentClient  DownloadComplete_Test:vector  ETV
attr source  BitTorrentClient_DownloadComplete_Test
attr title  "Descargas completas (prueba), vector"
vector 55  BasicTopology.peer[24].bitTorrentApp.bitTorrentClient  DownloadComplete_Test:vector  ETV
attr source  BitTorrentClient_DownloadComplete_Test
attr title  "Descargas completas (prueba), vector"
vector 839  BasicTopology.peer[0].bitTorrentApp.bitTorrentClient.contentManager_29  TotalBytesUploaded:vector  ETV
attr source  ContentManager_TotalBytesUploaded
attr title  "Total of Bytes Uploaded, vector"
attr unit  B
vector 942  BasicTopology.peer[13].bitTorrentApp.bitTorrentClient.contentManager_29  TotalBytesDownloaded:vector  ETV
attr source  ContentManager_TotalBytesDownloaded
attr title  "Total of Bytes Downloaded, vector"
attr unit  B
vector 998  BasicTopology.peer[20].bitTorrentApp.bitTorrentClient.contentManager_29  TotalBytesDownloaded:vector  ETV
attr source  ContentManager_TotalBytesDownloaded
attr title  "Total of Bytes Downloaded, vector"
attr unit  B
vector 997  BasicTopology.peer[20].bitTorrentApp.bitTorrentClient.contentManager_29  PiecesDownloaded:vector  ETV
attr source  ContentManager_PieceDownloaded
attr title  "Pieces Downloaded, vector"
vector 982  BasicTopology.peer[18].bitTorrentApp.bitTorrentClient.contentManager_29  TotalBytesDownloaded:vector  ETV
attr source  ContentManager_TotalBytesDownloaded
attr title  "Total of Bytes Downloaded, vector"
attr unit  B
vector 999  BasicTopology.peer[20].bitTorrentApp.bitTorrentClient.contentManager_29  TotalBytesUploaded:vector  ETV
attr source  ContentManager_TotalBytesUploaded
attr title  "Total of Bytes Uploaded, vector"
attr unit  B
vector 894  BasicTopology.peer[7].bitTorrentApp.bitTorrentClient.contentManager_29  TotalBytesDownloaded:vector  ETV
attr source  ContentManager_TotalBytesDownloaded
attr title  "Total of Bytes Downloaded, vector"
attr unit  B
vector 981  BasicTopology.peer[18].bitTorrentApp.bitTorrentClient.contentManager_29  PiecesDownloaded:vector  ETV
attr source  ContentManager_PieceDownloaded
attr title  "Pieces Downloaded, vector"
vector 983  BasicTopology.peer[18].bitTorrentApp.bitTorrentClient.contentManager_29  TotalBytesUploaded:vector  ETV
attr source  ContentManager_TotalBytesUploaded
attr title  "Total of Bytes Uploaded, vector"
attr unit  B
vector 893  BasicTopology.peer[7].bitTorrentApp.bitTorrentClient.contentManager_29  PiecesDownloaded:vector  ETV
attr source  ContentManager_PieceDownloaded
attr title  "Pieces Downloaded, vector"
vector 895  BasicTopology.peer[7].bitTorrentApp.bitTorrentClient.contentManager_29  TotalBytesUploaded:vector  ETV
attr source  ContentManager_TotalBytesUploaded
attr title  "Total of Bytes Uploaded, vector"
attr unit  B
vector 941  BasicTopology.peer[13].bitTorrentApp.bitTorrentClient.contentManager_29  PiecesDownloaded:vector  ETV
attr source  ContentManager_PieceDownloaded
attr title  "Pieces Downloaded, vector"
vector 943  BasicTopology.peer[13].bitTorrentApp.bitTorrentClient.contentManager_29  TotalBytesUploaded:vector  ETV
attr source  ContentManager_TotalBytesUploaded
attr title  "Total of Bytes Uploaded, vector"
attr unit  B
vector 5  BasicTopology  DownloadEmittedPeerId:vector  ETV
attr source  ContentManager_EmittedPeerId
attr title  "Peer Download Signal Emitted, vector"
vector 4  BasicTopology  DownloadComplete:vector  ETV
attr source  ContentManager_100_percentDownloadTime
attr title  "Download Complete, vector"
attr unit  s
vector 886  BasicTopology.peer[6].bitTorrentApp.bitTorrentClient.contentManager_29  TotalBytesDownloaded:vector  ETV
attr source  ContentManager_TotalBytesDownloaded
attr title  "Total of Bytes Downloaded, vector"
attr unit  B
vector 885  BasicTopology.peer[6].bitTorrentApp.bitTorrentClient.contentManager_29  PiecesDownloaded:vector  ETV
attr source  ContentManager_PieceDownloaded
attr title  "Pieces Downloaded, vector"
vector 887  BasicTopology.peer[6].bitTorrentApp.bitTorrentClient.contentManager_29  TotalBytesUploaded:vector  ETV
attr source  ContentManager_TotalBytesUploaded
attr title  "Total of Bytes Uploaded, vector"
attr unit  B
vector 870  BasicTopology.peer[4].bitTorrentApp.bitTorrentClient.contentManager_29  TotalBytesDownloaded:vector  ETV
attr source  ContentManager_TotalBytesDownloaded
attr title  "Total of Bytes Downloaded, vector"
attr unit  B
vector 869  BasicTopology.peer[4].bitTorrentApp.bitTorrentClient.contentManager_29  PiecesDownloaded:vector  ETV
attr source  ContentManager_PieceDownloaded
attr title  "Pieces Downloaded, vector"
vector 878  BasicTopology.peer[5].bitTorrentApp.bitTorrentClient.contentManager_29  TotalBytesDownloaded:vector  ETV
attr source  ContentManager_TotalBytesDownloaded
attr title  "Total of Bytes Downloaded, vector"
attr unit  B
vector 877  BasicTopology.peer[5].bitTorrentApp.bitTorrentClient.contentManager_29  PiecesDownloaded:vector  ETV
attr source  ContentManager_PieceDownloaded
attr title  "Pieces Downloaded, vector"
vector 45  BasicTopology.peer[19].bitTorrentApp.bitTorrentClient  DownloadComplete_Test:vector  ETV
attr source  BitTorrentClient_DownloadComplete_Test
attr title  "Descargas completas (prueba), vector"
vector 990  BasicTopology.peer[19].bitTorrentApp.bitTorrentClient.contentManager_29  TotalBytesDownloaded:vector  ETV
attr source  ContentManager_TotalBytesDownloaded
attr title  "Total of Bytes Downloaded, vector"
attr unit  B
vector 989  BasicTopology.peer[19].bitTorrentApp.bitTorrentClient.contentManager_29  PiecesDownloaded:vector  ETV
attr source  ContentManager_PieceDownloaded
attr title  "Pieces Downloaded, vector"
vector 871  BasicTopology.peer[4].bitTorrentApp.bitTorrentClient.contentManager_29  TotalBytesUploaded:vector  ETV
attr source  ContentManager_TotalBytesUploaded
attr title  "Total of Bytes Uploaded, vector"
attr unit  B
vector 879  BasicTopology.peer[5].bitTorrentApp.bitTorrentClient.contentManager_29  TotalBytesUploaded:vector  ETV
attr source  ContentManager_TotalBytesUploaded
attr title  "Total of Bytes Uploaded, vector"
attr unit  B
vector 958  BasicTopology.peer[15].bitTorrentApp.bitTorrentClient.contentManager_29  TotalBytesDownloaded:vector  ETV
attr source  ContentManager_TotalBytesDownloaded
attr title  "Total of Bytes Downloaded, vector"
attr unit  B
vector 957  BasicTopology.peer[15].bitTorrentApp.bitTorrentClient.contentManager_29  PiecesDownloaded:vector  ETV
attr source  ContentManager_PieceDownloaded
attr title  "Pieces Downloaded, vector"
vector 959  BasicTopology.peer[15].bitTorrentApp.bitTorrentClient.contentManager_29  TotalBytesUploaded:vector  ETV
attr source  ContentManager_TotalBytesUploaded
attr title  "Total of Bytes Uploaded, vector"
attr unit  B
vector 846  BasicTopology.peer[1].bitTorrentApp.bitTorrentClient.contentManager_29  TotalBytesDownloaded:vector  ETV
attr source  ContentManager_TotalBytesDownloaded
attr title  "Total of Bytes Downloaded, vector"
attr unit  B
vector 845  BasicTopology.peer[1].bitTorrentApp.bitTorrentClient.contentManager_29  PiecesDownloaded:vector  ETV
attr source  ContentManager_PieceDownloaded
attr title  "Pieces Downloaded, vector"
vector 847  BasicTopology.peer[1].bitTorrentApp.bitTorrentClient.contentManager_29  TotalBytesUploaded:vector  ETV
attr source  ContentManager_TotalBytesUploaded
attr title  "Total of Bytes Uploaded, vector"
attr unit  B
vector 950  BasicTopology.peer[14].bitTorrentApp.bitTorrentClient.contentManager_29  TotalBytesDownloaded:vector  ETV
attr source  ContentManager_TotalBytesDownloaded
attr title  "Total of Bytes Downloaded, vector"
attr unit  B
vector 949  BasicTopology.peer[14].bitTorrentApp.bitTorrentClient.contentManager_29  PiecesDownloaded:vector  ETV
attr source  ContentManager_PieceDownloaded
attr title  "Pieces Downloaded, vector"
vector 951  BasicTopology.peer[14].bitTorrentApp.bitTorrentClient.contentManager_29  TotalBytesUploaded:vector  ETV
attr source  ContentManager_TotalBytesUploaded
attr title  "Total of Bytes Uploaded, vector"
attr unit  B
vector 862  BasicTopology.peer[3].bitTorrentApp.bitTorrentClient.contentManager_29  TotalBytesDownloaded:vector  ETV
attr source  ContentManager_TotalBytesDownloaded
attr title  "Total of Bytes Downloaded, vector"
attr unit  B
vector 974  BasicTopology.peer[17].bitTorrentApp.bitTorrentClient.contentManager_29  TotalBytesDownloaded:vector  ETV
attr source  ContentManager_TotalBytesDownloaded
attr title  "Total of Bytes Downloaded, vector"
attr unit  B
vector 1006  BasicTopology.peer[21].bitTorrentApp.bitTorrentClient.contentManager_29  TotalBytesDownloaded:vector  ETV
attr source  ContentManager_TotalBytesDownloaded
attr title  "Total of Bytes Downloaded, vector"
attr unit  B
vector 1005  BasicTopology.peer[21].bitTorrentApp.bitTorrentClient.contentManager_29  PiecesDownloaded:vector  ETV
attr source  ContentManager_PieceDownloaded
attr title  "Pieces Downloaded, vector"
vector 861  BasicTopology.peer[3].bitTorrentApp.bitTorrentClient.contentManager_29  PiecesDownloaded:vector  ETV
attr source  ContentManager_PieceDownloaded
attr title  "Pieces Downloaded, vector"
vector 966  BasicTopology.peer[16].bitTorrentApp.bitTorrentClient.contentManager_29  TotalBytesDownloaded:vector  ETV
attr source  ContentManager_TotalBytesDownloaded
attr title  "Total of Bytes Downloaded, vector"
attr unit  B
vector 973  BasicTopology.peer[17].bitTorrentApp.bitTorrentClient.contentManager_29  PiecesDownloaded:vector  ETV
attr source  ContentManager_PieceDownloaded
attr title  "Pieces Downloaded, vector"
vector 965  BasicTopology.peer[16].bitTorrentApp.bitTorrentClient.contentManager_29  PiecesDownloaded:vector  ETV
attr source  ContentManager_PieceDownloaded
attr title  "Pieces Downloaded, vector"
vector 967  BasicTopology.peer[16].bitTorrentApp.bitTorrentClient.contentManager_29  TotalBytesUploaded:vector  ETV
attr source  ContentManager_TotalBytesUploaded
attr title  "Total of Bytes Uploaded, vector"
attr unit  B
vector 910  BasicTopology.peer[9].bitTorrentApp.bitTorrentClient.contentManager_29  TotalBytesDownloaded:vector  ETV
attr source  ContentManager_TotalBytesDownloaded
attr title  "Total of Bytes Downloaded, vector"
attr unit  B
vector 1022  BasicTopology.peer[23].bitTorrentApp.bitTorrentClient.contentManager_29  TotalBytesDownloaded:vector  ETV
attr source  ContentManager_TotalBytesDownloaded
attr title  "Total of Bytes Downloaded, vector"
attr unit  B
vector 1021  BasicTopology.peer[23].bitTorrentApp.bitTorrentClient.contentManager_29  PiecesDownloaded:vector  ETV
attr source  ContentManager_PieceDownloaded
attr title  "Pieces Downloaded, vector"
vector 909  BasicTopology.peer[9].bitTorrentApp.bitTorrentClient.contentManager_29  PiecesDownloaded:vector  ETV
attr source  ContentManager_PieceDownloaded
attr title  "Pieces Downloaded, vector"
vector 1023  BasicTopology.peer[23].bitTorrentApp.bitTorrentClient.contentManager_29  TotalBytesUploaded:vector  ETV
attr source  ContentManager_TotalBytesUploaded
attr title  "Total of Bytes Uploaded, vector"
attr unit  B
vector 975  BasicTopology.peer[17].bitTorrentApp.bitTorrentClient.contentManager_29  TotalBytesUploaded:vector  ETV
attr source  ContentManager_TotalBytesUploaded
attr title  "Total of Bytes Uploaded, vector"
attr unit  B
vector 911  BasicTopology.peer[9].bitTorrentApp.bitTorrentClient.contentManager_29  TotalBytesUploaded:vector  ETV
attr source  ContentManager_TotalBytesUploaded
attr title  "Total of Bytes Uploaded, vector"
attr unit  B
vector 902  BasicTopology.peer[8].bitTorrentApp.bitTorrentClient.contentManager_29  TotalBytesDownloaded:vector  ETV
attr source  ContentManager_TotalBytesDownloaded
attr title  "Total of Bytes Downloaded, vector"
attr unit  B
vector 1014  BasicTopology.peer[22].bitTorrentApp.bitTorrentClient.contentManager_29  TotalBytesDownloaded:vector  ETV
attr source  ContentManager_TotalBytesDownloaded
attr title  "Total of Bytes Downloaded, vector"
attr unit  B
vector 1013  BasicTopology.peer[22].bitTorrentApp.bitTorrentClient.contentManager_29  PiecesDownloaded:vector  ETV
attr source  ContentManager_PieceDownloaded
attr title  "Pieces Downloaded, vector"
vector 901  BasicTopology.peer[8].bitTorrentApp.bitTorrentClient.contentManager_29  PiecesDownloaded:vector  ETV
attr source  ContentManager_PieceDownloaded
attr title  "Pieces Downloaded, vector"
vector 918  BasicTopology.peer[10].bitTorrentApp.bitTorrentClient.contentManager_29  TotalBytesDownloaded:vector  ETV
attr source  ContentManager_TotalBytesDownloaded
attr title  "Total of Bytes Downloaded, vector"
attr unit  B
vector 863  BasicTopology.peer[3].bitTorrentApp.bitTorrentClient.contentManager_29  TotalBytesUploaded:vector  ETV
attr source  ContentManager_TotalBytesUploaded
attr title  "Total of Bytes Uploaded, vector"
attr unit  B
vector 917  BasicTopology.peer[10].bitTorrentApp.bitTorrentClient.contentManager_29  PiecesDownloaded:vector  ETV
attr source  ContentManager_PieceDownloaded
attr title  "Pieces Downloaded, vector"
vector 1030  BasicTopology.peer[24].bitTorrentApp.bitTorrentClient.contentManager_29  TotalBytesDownloaded:vector  ETV
attr source  ContentManager_TotalBytesDownloaded
attr title  "Total of Bytes Downloaded, vector"
attr unit  B
vector 1029  BasicTopology.peer[24].bitTorrentApp.bitTorrentClient.contentManager_29  PiecesDownloaded:vector  ETV
attr source  ContentManager_PieceDownloaded
attr title  "Pieces Downloaded, vector"
vector 1031  BasicTopology.peer[24].bitTorrentApp.bitTorrentClient.contentManager_29  TotalBytesUploaded:vector  ETV
attr source  ContentManager_TotalBytesUploaded
attr title  "Total of Bytes Uploaded, vector"
attr unit  B
vector 926  BasicTopology.peer[11].bitTorrentApp.bitTorrentClient.contentManager_29  TotalBytesDownloaded:vector  ETV
attr source  ContentManager_TotalBytesDownloaded
attr title  "Total of Bytes Downloaded, vector"
attr unit  B
vector 934  BasicTopology.peer[12].bitTorrentApp.bitTorrentClient.contentManager_29  TotalBytesDownloaded:vector  ETV
attr source  ContentManager_TotalBytesDownloaded
attr title  "Total of Bytes Downloaded, vector"
attr unit  B
vector 933  BasicTopology.peer[12].bitTorrentApp.bitTorrentClient.contentManager_29  PiecesDownloaded:vector  ETV
attr source  ContentManager_PieceDownloaded
attr title  "Pieces Downloaded, vector"
vector 925  BasicTopology.peer[11].bitTorrentApp.bitTorrentClient.contentManager_29  PiecesDownloaded:vector  ETV
attr source  ContentManager_PieceDownloaded
attr title  "Pieces Downloaded, vector"
vector 927  BasicTopology.peer[11].bitTorrentApp.bitTorrentClient.contentManager_29  TotalBytesUploaded:vector  ETV
attr source  ContentManager_TotalBytesUploaded
attr title  "Total of Bytes Uploaded, vector"
attr unit  B
vector 935  BasicTopology.peer[12].bitTorrentApp.bitTorrentClient.contentManager_29  TotalBytesUploaded:vector  ETV
attr source  ContentManager_TotalBytesUploaded
attr title  "Total of Bytes Uploaded, vector"
attr unit  B
vector 854  BasicTopology.peer[2].bitTorrentApp.bitTorrentClient.contentManager_29  TotalBytesDownloaded:vector  ETV
attr source  ContentManager_TotalBytesDownloaded
attr title  "Total of Bytes Downloaded, vector"
attr unit  B
vector 853  BasicTopology.peer[2].bitTorrentApp.bitTorrentClient.contentManager_29  PiecesDownloaded:vector  ETV
attr source  ContentManager_PieceDownloaded
attr title  "Pieces Downloaded, vector"
vector 991  BasicTopology.peer[19].bitTorrentApp.bitTorrentClient.contentManager_29  TotalBytesUploaded:vector  ETV
attr source  ContentManager_TotalBytesUploaded
attr title  "Total of Bytes Uploaded, vector"
attr unit  B
0	64858447	259201	259201
0	64858448	259201	259201
0	64858449	259201	259201
0	64858450	259201	259201
0	64858451	259201	259201
0	64858452	259201	259201
0	64858453	259201	259201
0	64858454	259201	259201
0	64858455	259201	259201
0	64858456	259201	259201
0	64858457	259201	259201
0	64858458	259201	259201
0	64858459	259201	259201
0	64858460	259201	259201
0	64858461	259201	259201
0	64858462	259201	259201
0	64858463	259201	259201
0	64858464	259201	259201
0	64858466	259201	259201
0	64858467	259201	259201
0	64858468	259201	259201
0	64858469	259201	259201
0	64858470	259201	259201
0	79081521	259289.701134982879	259289.70113498
0	79715307	259293.994875179149	259293.99487518
0	79759176	259294.953958199275	259294.9539582
0	79783780	259295.883325747887	259295.88332575
0	84534422	259542.012226340458	259542.01222634
0	87549816	259608.124160428976	259608.12416043
0	89284495	260101	260101
0	91001520	260197.902706150286	260197.90270615
0	91089880	260200.271317487083	260200.27131749
0	118347721	260619.773755046439	260619.77375505
0	122803187	260643.404003557245	260643.40400356
0	124169886	260650.408772232745	260650.40877223
0	124309651	260650.869669129761	260650.86966913
0	126180288	260667.643027204623	260667.6430272
0	131950483	260815.260204731053	260815.26020473
0	132587527	260822.858225369055	260822.85822537
0	132653487	260825.643651341582	260825.64365134
0	135262635	261298.224738112596	261298.22473811
0	136610468	261535.766796271428	261535.76679627
0	137672137	261628.679106812726	261628.67910681
0	138115777	261658.895408625211	261658.89540863
0	138164118	261661.090905715984	261661.09090572
0	138930484	261786.78225145266	261786.78225145
0	140288380	262159.80981940653	262159.80981941
0	141468857	263264.655583682015	263264.65558368
1	64858140	259200	259200
1	64858447	259201	259201
1	64858448	259201	259201
1	64858449	259201	259201
1	64858450	259201	259201
1	64858451	259201	259201
1	64858452	259201	259201
1	64858453	259201	259201
1	64858454	259201	259201
1	64858455	259201	259201
1	64858456	259201	259201
1	64858457	259201	259201
1	64858458	259201	259201
1	64858459	259201	259201
1	64858460	259201	259201
1	64858461	259201	259201
1	64858462	259201	259201
1	64858463	259201	259201
1	64858464	259201	259201
1	64858465	259201	259201
1	64858466	259201	259201
1	64858467	259201	259201
1	64858468	259201	259201
1	64858469	259201	259201
1	64858470	259201	259201
3	64858140	259200	6
3	64858447	259201	7
3	64858448	259201	8
3	64858449	259201	9
3	64858450	259201	10
3	64858451	259201	11
3	64858452	259201	12
3	64858453	259201	13
3	64858454	259201	14
3	64858455	259201	15
3	64858456	259201	16
3	64858457	259201	17
3	64858458	259201	18
3	64858459	259201	19
3	64858460	259201	20
3	64858461	259201	21
3	64858462	259201	22
3	64858463	259201	23
3	64858464	259201	24
3	64858465	259201	25
3	64858466	259201	26
3	64858467	259201	27
3	64858468	259201	28
3	64858469	259201	29
3	64858470	259201	30
4	79081521	259289.701134982879	87.414436782061
4	79715307	259293.994875179149	83.449473983017
4	79759176	259294.953958199275	90.541471697078
4	79783780	259295.883325747887	90.400429341522
4	84534422	259542.012226340458	38.80142718344
4	87549816	259608.124160428976	98.216540973769
4	91001520	260197.902706150286	92.474288087605
4	91089880	260200.271317487083	216.75852024988
4	118347721	260619.773755046439	231.26011924065
4	122803187	260643.404003557245	353.72021971615
4	124169886	260650.408772232745	263.60736578018
4	124309651	260650.869669129761	265.10227133784
4	126180288	260667.643027204623	84.428340448717
4	131950483	260815.260204731053	199.82580239565
4	132587527	260822.858225369055	201.7984618514
4	132653487	260825.643651341582	204.709725432
4	135262635	261298.224738112596	913.74982646371
4	136610468	261535.766796271428	1153.5251526906
4	137672137	261628.679106812726	1132.9265252237
4	138115777	261658.895408625211	1265.8308288054
4	138164118	261661.090905715984	1270.3869746034
4	138930484	261786.78225145266	1110.0103492757
4	140288380	262159.80981940653	1666.9594540827
4	141468857	263264.655583682015	2974.7230251799
5	68768715	259225.839805249211	13
5	68875553	259226.265107470133	26
5	69185468	259227.720486165481	24
5	69382644	259228.641173871264	19
5	72206190	259244.655334607676	19
5	72309444	259245.206890716058	24
5	72522141	259246.351377177856	13
5	73186779	259249.595390232803	26
5	76045255	259266.442177370756	19
5	76240716	259268.157969547593	26
5	76262587	259268.355920606009	13
5	76746809	259271.937749407408	24
5	79081521	259289.701134982879	26
5	79715307	259293.994875179149	19
5	79759176	259294.953958199275	24
5	79783780	259295.883325747887	13
5	81239263	259511.336483735694	12
5	82272225	259521.187474605032	12
5	83229851	259529.48929604894	12
5	84534422	259542.012226340458	12
5	84778019	259547.529714249249	10
5	85692553	259565.461784093451	10
5	86610959	259587.457968469918	10
5	87549816	259608.124160428976	10
5	88361958	260001.125284196386	11
5	88744365	260027.039218382257	11
5	89127415	260051.958328243364	11
5	89587989	260130.149044206817	25
5	89884957	260151.074489396835	25
5	90185064	260177.992743361354	25
5	91001520	260197.902706150286	25
5	91089880	260200.271317487083	11
5	98297824	260419.793725370571	20
5	98399372	260420.338853120102	29
5	98848739	260422.657757291677	9
5	99000713	260423.431190677146	23
5	101263721	260435.96560084173	22
5	101695361	260438.781307169946	15
5	102939905	260444.224728757411	20
5	104270135	260450.529497771509	23
5	104591685	260453.63183325885	9
5	104939709	260456.734293120842	29
5	105111645	260457.471563572659	22
5	106161153	260466.352244590038	15
5	107478479	260475.309427417341	22
5	107859995	260477.462639154181	29
5	108923610	260493.290694966769	15
5	109938511	260501.848787843931	27
5	110976575	260514.068250002978	28
5	111507842	260520.506069473825	14
5	111736958	260522.966057441416	27
5	112723242	260544.028427215897	28
5	113156204	260551.614664110861	14
5	114163569	260585.289249759325	21
5	116144184	260603.410670114507	21
5	116212730	260603.932362376136	16
5	118031514	260617.711826800043	21
5	118347721	260619.773755046439	22
5	119055801	260623.547768357103	23
5	119295941	260624.480929273309	9
5	120008498	260628.835029545025	16
5	121464614	260636.911837681605	30
5	122803187	260643.404003557245	21
5	123554064	260647.727570318544	16
5	124096347	260650.247352002322	17
5	124160652	260650.389462150034	18
5	124169886	260650.408772232745	23
5	124309651	260650.869669129761	9
5	125367328	260659.728278481679	18
5	126180288	260667.643027204623	16
5	126506301	260672.939660874759	17
5	126631364	260674.354947556488	30
5	128994297	260749.831751363603	30
5	129456096	260755.159839574203	18
5	129828292	260758.45525608798	17
5	130107164	260765.729412502995	8
5	131950483	260815.260204731053	30
5	132587527	260822.858225369055	17
5	132653487	260825.643651341582	18
5	133382842	261277.065398591533	27
5	135262635	261298.224738112596	27
5	135899457	261492.22734839714	20
5	136610468	261535.766796271428	20
5	136878341	261607.747511773066	14
5	137672137	261628.679106812726	14
5	138115777	261658.895408625211	15
5	138164118	261661.090905715984	29
5	138257626	261741.263222655332	8
5	138605183	261767.185187925862	8
5	138930484	261786.78225145266	8
5	139415966	262146.736533730608	28
5	140288380	262159.80981940653	28
5	140596319	263200.893496001899	7
5	140888075	263224.809451040975	7
5	141182008	263246.750776242746	7
5	141468857	263264.655583682015	7
9	64858447	259201	259201
9	141468857	263264.655583682015	263264.65558368
11	64858448	259201	259201
11	138930484	261786.78225145266	261786.78225145
13	64858449	259201	259201
13	124309651	260650.869669129761	260650.86966913
15	64858450	259201	259201
15	87549816	259608.124160428976	259608.12416043
17	64858451	259201	259201
17	91089880	260200.271317487083	260200.27131749
19	64858452	259201	259201
19	84534422	259542.012226340458	259542.01222634
21	64858453	259201	259201
21	79783780	259295.883325747887	259295.88332575
23	64858454	259201	259201
23	137672137	261628.679106812726	261628.67910681
25	64858455	259201	259201
25	138115777	261658.895408625211	261658.89540863
27	64858456	259201	259201
27	126180288	260667.643027204623	260667.6430272
29	64858457	259201	259201
29	132587527	260822.858225369055	260822.85822537
31	64858458	259201	259201
31	132653487	260825.643651341582	260825.64365134
33	64858459	259201	259201
33	79715307	259293.994875179149	259293.99487518
35	64858460	259201	259201
35	136610468	261535.766796271428	261535.76679627
37	64858461	259201	259201
37	122803187	260643.404003557245	260643.40400356
39	64858462	259201	259201
39	118347721	260619.773755046439	260619.77375505
41	64858463	259201	259201
41	124169886	260650.408772232745	260650.40877223
43	64858464	259201	259201
43	79759176	259294.953958199275	259294.9539582
45	89284495	260101	260101
45	91001520	260197.902706150286	260197.90270615
47	64858466	259201	259201
47	79081521	259289.701134982879	259289.70113498
49	64858467	259201	259201
49	135262635	261298.224738112596	261298.22473811
51	64858468	259201	259201
51	140288380	262159.80981940653	262159.80981941
53	64858469	259201	259201
53	138164118	261661.090905715984	261661.09090572
55	64858470	259201	259201
55	131950483	260815.260204731053	260815.26020473
839	64892397	259201.046080862585	32768
839	64896110	259201.059635062703	65536
839	64899267	259201.096356536081	98304
839	64899272	259201.107559706766	131072
839	64899533	259201.108713384152	163840