version 2
run Test-7-20171016-14:21:54-9509
attr configname Test
attr datetime 20171016-14:21:54
attr experiment "\"Simulation Test\""
attr inifile BasicConfig.ini
attr iterationvars ""
attr iterationvars2 $repetition=7
attr measurement "\"Peers: $peers, Rate: $rate\""
attr network BasicTopology
attr processid 9509
attr repetition 7
attr replication #7
attr resultdir results
attr runnumber 7
attr seedset 7

vector 1  BasicTopology  EnterSwarm:vector  ETV
attr ""  ""
attr source  SwarmManager_EnterSwarm
attr title  "Enter Swarm Time, vector"
vector 3  BasicTopology  SwarmEmittedPeerId:vector  ETV
attr ""  ""
attr source  SwarmManager_EmittedPeerId
attr title  "Peer Swarm Signal Emitted, vector"
vector 17  BasicTopology.peer[5].bitTorrentApp.bitTorrentClient  DownloadComplete_Test:vector  ETV
attr source  BitTorrentClient_DownloadComplete_Test
attr title  "Descargas completas (prueba), vector"
vector 0  BasicTopology  DownloadComplete_Test:vector  ETV
attr source  BitTorrentClient_DownloadComplete_Test
attr title  "Tiempo de desacarga (prueba), vector"
vector 19  BasicTopology.peer[6].bitTorrentApp.bitTorrentClient  DownloadComplete_Test:vector  ETV
attr source  BitTorrentClient_DownloadComplete_Test
attr title  "Descargas completas (prueba), vector"
vector 23  BasicTopology.peer[8].bitTorrentApp.bitTorrentClient  DownloadComplete_Test:vector  ETV
attr source  BitTorrentClient_DownloadComplete_Test
attr title  "Descargas completas (prueba), vector"
vector 25  BasicTopology.peer[9].bitTorrentApp.bitTorrentClient  DownloadComplete_Test:vector  ETV
attr source  BitTorrentClient_DownloadComplete_Test
attr title  "Descargas completas (prueba), vector"
vector 27  BasicTopology.peer[10].bitTorrentApp.bitTorrentClient  DownloadComplete_Test:vector  ETV
attr source  BitTorrentClient_DownloadComplete_Test
attr title  "Descargas completas (prueba), vector"
vector 29  BasicTopology.peer[11].bitTorrentApp.bitTorrentClient  DownloadComplete_Test:vector  ETV
attr source  BitTorrentClient_DownloadComplete_Test
attr title  "Descargas completas (prueba), vector"
vector 31  BasicTopology.peer[12].bitTorrentApp.bitTorrentClient  DownloadComplete_Test:vector  ETV
attr source  BitTorrentClient_DownloadComplete_Test
attr title  "Descargas completas (prueba), vector"
vector 33  BasicTopology.peer[13].bitTorrentApp.bitTorrentClient  DownloadComplete_Test:vector  ETV
attr source  BitTorrentClient_DownloadComplete_Test
attr title  "Descargas completas (prueba), vector"
vector 35  BasicTopology.peer[14].bitTorrentApp.bitTorrentClient  DownloadComplete_Test:vector  ETV
attr source  BitTorrentClient_DownloadComplete_Test
attr title  "Descargas completas (prueba), vector"
vector 37  BasicTopology.peer[15].bitTorrentApp.bitTorrentClient  DownloadComplete_Test:vector  ETV
attr source  BitTorrentClient_DownloadComplete_Test
attr title  "Descargas completas (prueba), vector"
vector 39  BasicTopology.peer[16].bitTorrentApp.bitTorrentClient  DownloadComplete_Test:vector  ETV
attr source  BitTorrentClient_DownloadComplete_Test
attr title  "Descargas completas (prueba), vector"
vector 41  BasicTopology.peer[17].bitTorrentApp.bitTorrentClient  DownloadComplete_Test:vector  ETV
attr source  BitTorrentClient_DownloadComplete_Test
attr title  "Descargas completas (prueba), vector"
vector 43  BasicTopology.peer[18].bitTorrentApp.bitTorrentClient  DownloadComplete_Test:vector  ETV
attr source  BitTorrentClient_DownloadComplete_Test
attr title  "Descargas completas (prueba), vector"
vector 45  BasicTopology.peer[19].bitTorrentApp.bitTorrentClient  DownloadComplete_Test:vector  ETV
attr source  BitTorrentClient_DownloadComplete_Test
attr title  "Descargas completas (prueba), vector"
vector 47  BasicTopology.peer[20].bitTorrentApp.bitTorrentClient  DownloadComplete_Test:vector  ETV
attr source  BitTorrentClient_DownloadComplete_Test
attr title  "Descargas completas (prueba), vector"
vector 49  BasicTopology.peer[21].bitTorrentApp.bitTorrentClient  DownloadComplete_Test:vector  ETV
attr source  BitTorrentClient_DownloadComplete_Test
attr title  "Descargas completas (prueba), vector"
vector 51  BasicTopology.peer[22].bitTorrentApp.bitTorrentClient  DownloadComplete_Test:vector  ETV
attr source  BitTorrentClient_DownloadComplete_Test
attr title  "Descargas completas (prueba), vector"
vector 53  BasicTopology.peer[23].bitTorrentApp.bitTorrentClient  DownloadComplete_Test:vector  ETV
attr source  BitTorrentClient_DownloadComplete_Test
attr title  "Descargas completas (prueba), vector"
vector 55  BasicTopology.peer[24].bitTorrentApp.bitTorrentClient  DownloadComplete_Test:vector  ETV
attr source  BitTorrentClient_DownloadComplete_Test
attr title  "Descargas completas (prueba), vector"
vector 855  BasicTopology.peer[2].bitTorrentApp.bitTorrentClient.contentManager_29  TotalBytesUploaded:vector  ETV
attr source  ContentManager_TotalBytesUploaded
attr title  "Total of Bytes Uploaded, vector"
attr unit  B
vector 871  BasicTopology.peer[4].bitTorrentApp.bitTorrentClient.contentManager_29  TotalBytesUploaded:vector  ETV
attr source  ContentManager_TotalBytesUploaded
attr title  "Total of Bytes Uploaded, vector"
attr unit  B
vector 847  BasicTopology.peer[1].bitTorrentApp.bitTorrentClient.contentManager_29  TotalBytesUploaded:vector  ETV
attr source  ContentManager_TotalBytesUploaded
attr title  "Total of Bytes Uploaded, vector"
attr unit  B
vector 1006  BasicTopology.peer[21].bitTorrentApp.bitTorrentClient.contentManager_29  TotalBytesDownloaded:vector  ETV
attr source  ContentManager_TotalBytesDownloaded
attr title  "Total of Bytes Downloaded, vector"
attr unit  B
vector 902  BasicTopology.peer[8].bitTorrentApp.bitTorrentClient.contentManager_29  TotalBytesDownloaded:vector  ETV
attr source  ContentManager_TotalBytesDownloaded
attr title  "Total of Bytes Downloaded, vector"
attr unit  B
vector 901  BasicTopology.peer[8].bitTorrentApp.bitTorrentClient.contentManager_29  PiecesDownloaded:vector  ETV
attr source  ContentManager_PieceDownloaded
attr title  "Pieces Downloaded, vector"
vector 1005  BasicTopology.peer[21].bitTorrentApp.bitTorrentClient.contentManager_29  PiecesDownloaded:vector  ETV
attr source  ContentManager_PieceDownloaded
attr title  "Pieces Downloaded, vector"
vector 1007  BasicTopology.peer[21].bitTorrentApp.bitTorrentClient.contentManager_29  TotalBytesUploaded:vector  ETV
attr source  ContentManager_TotalBytesUploaded
attr title  "Total of Bytes Uploaded, vector"
attr unit  B
vector 903  BasicTopology.peer[8].bitTorrentApp.bitTorrentClient.contentManager_29  TotalBytesUploaded:vector  ETV
attr source  ContentManager_TotalBytesUploaded
attr title  "Total of Bytes Uploaded, vector"
attr unit  B
vector 926  BasicTopology.peer[11].bitTorrentApp.bitTorrentClient.contentManager_29  TotalBytesDownloaded:vector  ETV
attr source  ContentManager_TotalBytesDownloaded
attr title  "Total of Bytes Downloaded, vector"
attr unit  B
vector 863  BasicTopology.peer[3].bitTorrentApp.bitTorrentClient.contentManager_29  TotalBytesUploaded:vector  ETV
attr source  ContentManager_TotalBytesUploaded
attr title  "Total of Bytes Uploaded, vector"
attr unit  B
vector 925  BasicTopology.peer[11].bitTorrentApp.bitTorrentClient.contentManager_29  PiecesDownloaded:vector  ETV
attr source  ContentManager_PieceDownloaded
attr title  "Pieces Downloaded, vector"
vector 878  BasicTopology.peer[5].bitTorrentApp.bitTorrentClient.contentManager_29  TotalBytesDownloaded:vector  ETV
attr source  ContentManager_TotalBytesDownloaded
attr title  "Total of Bytes Downloaded, vector"
attr unit  B
vector 1022  BasicTopology.peer[23].bitTorrentApp.bitTorrentClient.contentManager_29  TotalBytesDownloaded:vector  ETV
attr source  ContentManager_TotalBytesDownloaded
attr title  "Total of Bytes Downloaded, vector"
attr unit  B
vector 966  BasicTopology.peer[16].bitTorrentApp.bitTorrentClient.contentManager_29  TotalBytesDownloaded:vector  ETV
attr source  ContentManager_TotalBytesDownloaded
attr title  "Total of Bytes Downloaded, vector"
attr unit  B
vector 927  BasicTopology.peer[11].bitTorrentApp.bitTorrentClient.contentManager_29  TotalBytesUploaded:vector  ETV
attr source  ContentManager_TotalBytesUploaded
attr title  "Total of Bytes Uploaded, vector"
attr unit  B
vector 942  BasicTopology.peer[13].bitTorrentApp.bitTorrentClient.contentManager_29  TotalBytesDownloaded:vector  ETV
attr source  ContentManager_TotalBytesDownloaded
attr title  "Total of Bytes Downloaded, vector"
attr unit  B
vector 918  BasicTopology.peer[10].bitTorrentApp.bitTorrentClient.contentManager_29  TotalBytesDownloaded:vector  ETV
attr source  ContentManager_TotalBytesDownloaded
attr title  "Total of Bytes Downloaded, vector"
attr unit  B
vector 1021  BasicTopology.peer[23].bitTorrentApp.bitTorrentClient.contentManager_29  PiecesDownloaded:vector  ETV
attr source  ContentManager_PieceDownloaded
attr title  "Pieces Downloaded, vector"
vector 877  BasicTopology.peer[5].bitTorrentApp.bitTorrentClient.contentManager_29  PiecesDownloaded:vector  ETV
attr source  ContentManager_PieceDownloaded
attr title  "Pieces Downloaded, vector"
vector 879  BasicTopology.peer[5].bitTorrentApp.bitTorrentClient.contentManager_29  TotalBytesUploaded:vector  ETV
attr source  ContentManager_TotalBytesUploaded
attr title  "Total of Bytes Uploaded, vector"
attr unit  B
vector 910  BasicTopology.peer[9].bitTorrentApp.bitTorrentClient.contentManager_29  TotalBytesDownloaded:vector  ETV
attr source  ContentManager_TotalBytesDownloaded
attr title  "Total of Bytes Downloaded, vector"
attr unit  B
vector 950  BasicTopology.peer[14].bitTorrentApp.bitTorrentClient.contentManager_29  TotalBytesDownloaded:vector  ETV
attr source  ContentManager_TotalBytesDownloaded
attr title  "Total of Bytes Downloaded, vector"
attr unit  B
vector 941  BasicTopology.peer[13].bitTorrentApp.bitTorrentClient.contentManager_29  PiecesDownloaded:vector  ETV
attr source  ContentManager_PieceDownloaded
attr title  "Pieces Downloaded, vector"
vector 943  BasicTopology.peer[13].bitTorrentApp.bitTorrentClient.contentManager_29  TotalBytesUploaded:vector  ETV
attr source  ContentManager_TotalBytesUploaded
attr title  "Total of Bytes Uploaded, vector"
attr unit  B
vector 909  BasicTopology.peer[9].bitTorrentApp.bitTorrentClient.contentManager_29  PiecesDownloaded:vector  ETV
attr source  ContentManager_PieceDownloaded
attr title  "Pieces Downloaded, vector"
vector 982  BasicTopology.peer[18].bitTorrentApp.bitTorrentClient.contentManager_29  TotalBytesDownloaded:vector  ETV
attr source  ContentManager_TotalBytesDownloaded
attr title  "Total of Bytes Downloaded, vector"
attr unit  B
vector 917  BasicTopology.peer[10].bitTorrentApp.bitTorrentClient.contentManager_29  PiecesDownloaded:vector  ETV
attr source  ContentManager_PieceDownloaded
attr title  "Pieces Downloaded, vector"
vector 919  BasicTopology.peer[10].bitTorrentApp.bitTorrentClient.contentManager_29  TotalBytesUploaded:vector  ETV
attr source  ContentManager_TotalBytesUploaded
attr title  "Total of Bytes Uploaded, vector"
attr unit  B
vector 949  BasicTopology.peer[14].bitTorrentApp.bitTorrentClient.contentManager_29  PiecesDownloaded:vector  ETV
attr source  ContentManager_PieceDownloaded
attr title  "Pieces Downloaded, vector"
vector 965  BasicTopology.peer[16].bitTorrentApp.bitTorrentClient.contentManager_29  PiecesDownloaded:vector  ETV
attr source  ContentManager_PieceDownloaded
attr title  "Pieces Downloaded, vector"
vector 967  BasicTopology.peer[16].bitTorrentApp.bitTorrentClient.contentManager_29  TotalBytesUploaded:vector  ETV
attr source  ContentManager_TotalBytesUploaded
attr title  "Total of Bytes Uploaded, vector"
attr unit  B
vector 981  BasicTopology.peer[18].bitTorrentApp.bitTorrentClient.contentManager_29  PiecesDownloaded:vector  ETV
attr source  ContentManager_PieceDownloaded
attr title  "Pieces Downloaded, vector"
vector 1030  BasicTopology.peer[24].bitTorrentApp.bitTorrentClient.contentManager_29  TotalBytesDownloaded:vector  ETV
attr source  ContentManager_TotalBytesDownloaded
attr title  "Total of Bytes Downloaded, vector"
attr unit  B
vector 951  BasicTopology.peer[14].bitTorrentApp.bitTorrentClient.contentManager_29  TotalBytesUploaded:vector  ETV
attr source  ContentManager_TotalBytesUploaded
attr title  "Total of Bytes Uploaded, vector"
attr unit  B
vector 911  BasicTopology.peer[9].bitTorrentApp.bitTorrentClient.contentManager_29  TotalBytesUploaded:vector  ETV
attr source  ContentManager_TotalBytesUploaded
attr title  "Total of Bytes Uploaded, vector"
attr unit  B
vector 983  BasicTopology.peer[18].bitTorrentApp.bitTorrentClient.contentManager_29  TotalBytesUploaded:vector  ETV
attr source  ContentManager_TotalBytesUploaded
attr title  "Total of Bytes Uploaded, vector"
attr unit  B
vector 5  BasicTopology  DownloadEmittedPeerId:vector  ETV
attr source  ContentManager_EmittedPeerId
attr title  "Peer Download Signal Emitted, vector"
vector 1029  BasicTopology.peer[24].bitTorrentApp.bitTorrentClient.contentManager_29  PiecesDownloaded:vector  ETV
attr source  ContentManager_PieceDownloaded
attr title  "Pieces Downloaded, vector"
vector 1031  BasicTopology.peer[24].bitTorrentApp.bitTorrentClient.contentManager_29  TotalBytesUploaded:vector  ETV
attr source  ContentManager_TotalBytesUploaded
attr title  "Total of Bytes Uploaded, vector"
attr unit  B
vector 958  BasicTopology.peer[15].bitTorrentApp.bitTorrentClient.contentManager_29  TotalBytesDownloaded:vector  ETV
attr source  ContentManager_TotalBytesDownloaded
attr title  "Total of Bytes Downloaded, vector"
attr unit  B
vector 998  BasicTopology.peer[20].bitTorrentApp.bitTorrentClient.contentManager_29  TotalBytesDownloaded:vector  ETV
attr source  ContentManager_TotalBytesDownloaded
attr title  "Total of Bytes Downloaded, vector"
attr unit  B
vector 957  BasicTopology.peer[15].bitTorrentApp.bitTorrentClient.contentManager_29  PiecesDownloaded:vector  ETV
attr source  ContentManager_PieceDownloaded
attr title  "Pieces Downloaded, vector"
vector 959  BasicTopology.peer[15].bitTorrentApp.bitTorrentClient.contentManager_29  TotalBytesUploaded:vector  ETV
attr source  ContentManager_TotalBytesUploaded
attr title  "Total of Bytes Uploaded, vector"
attr unit  B
vector 997  BasicTopology.peer[20].bitTorrentApp.bitTorrentClient.contentManager_29  PiecesDownloaded:vector  ETV
attr source  ContentManager_PieceDownloaded
attr title  "Pieces Downloaded, vector"
vector 999  BasicTopology.peer[20].bitTorrentApp.bitTorrentClient.contentManager_29  TotalBytesUploaded:vector  ETV
attr source  ContentManager_TotalBytesUploaded
attr title  "Total of Bytes Uploaded, vector"
attr unit  B
vector 839  BasicTopology.peer[0].bitTorrentApp.bitTorrentClient.contentManager_29  TotalBytesUploaded:vector  ETV
attr source  ContentManager_TotalBytesUploaded
attr title  "Total of Bytes Uploaded, vector"
attr unit  B
vector 4  BasicTopology  DownloadComplete:vector  ETV
attr source  ContentManager_100_percentDownloadTime
attr title  "Download Complete, vector"
attr unit  s
vector 21  BasicTopology.peer[7].bitTorrentApp.bitTorrentClient  DownloadComplete_Test:vector  ETV
attr source  BitTorrentClient_DownloadComplete_Test
attr title  "Descargas completas (prueba), vector"
vector 894  BasicTopology.peer[7].bitTorrentApp.bitTorrentClient.contentManager_29  TotalBytesDownloaded:vector  ETV
attr source  ContentManager_TotalBytesDownloaded
attr title  "Total of Bytes Downloaded, vector"
attr unit  B
vector 1023  BasicTopology.peer[23].bitTorrentApp.bitTorrentClient.contentManager_29  TotalBytesUploaded:vector  ETV
attr source  ContentManager_TotalBytesUploaded
attr title  "Total of Bytes Uploaded, vector"
attr unit  B
vector 893  BasicTopology.peer[7].bitTorrentApp.bitTorrentClient.contentManager_29  PiecesDownloaded:vector  ETV
attr source  ContentManager_PieceDownloaded
attr title  "Pieces Downloaded, vector"
vector 895  BasicTopology.peer[7].bitTorrentApp.bitTorrentClient.contentManager_29  TotalBytesUploaded:vector  ETV
attr source  ContentManager_TotalBytesUploaded
attr title  "Total of Bytes Uploaded, vector"
attr unit  B
vector 990  BasicTopology.peer[19].bitTorrentApp.bitTorrentClient.contentManager_29  TotalBytesDownloaded:vector  ETV
attr source  ContentManager_TotalBytesDownloaded
attr title  "Total of Bytes Downloaded, vector"
attr unit  B
vector 989  BasicTopology.peer[19].bitTorrentApp.bitTorrentClient.contentManager_29  PiecesDownloaded:vector  ETV
attr source  ContentManager_PieceDownloaded
attr title  "Pieces Downloaded, vector"
vector 974  BasicTopology.peer[17].bitTorrentApp.bitTorrentClient.contentManager_29  TotalBytesDownloaded:vector  ETV
attr source  ContentManager_TotalBytesDownloaded
attr title  "Total of Bytes Downloaded, vector"
attr unit  B
vector 973  BasicTopology.peer[17].bitTorrentApp.bitTorrentClient.contentManager_29  PiecesDownloaded:vector  ETV
attr source  ContentManager_PieceDownloaded
attr title  "Pieces Downloaded, vector"
vector 1014  BasicTopology.peer[22].bitTorrentApp.bitTorrentClient.contentManager_29  TotalBytesDownloaded:vector  ETV
attr source  ContentManager_TotalBytesDownloaded
attr title  "Total of Bytes Downloaded, vector"
attr unit  B
vector 1013  BasicTopology.peer[22].bitTorrentApp.bitTorrentClient.contentManager_29  PiecesDownloaded:vector  ETV
attr source  ContentManager_PieceDownloaded
attr title  "Pieces Downloaded, vector"
vector 934  BasicTopology.peer[12].bitTorrentApp.bitTorrentClient.contentManager_29  TotalBytesDownloaded:vector  ETV
attr source  ContentManager_TotalBytesDownloaded
attr title  "Total of Bytes Downloaded, vector"
attr unit  B
vector 886  BasicTopology.peer[6].bitTorrentApp.bitTorrentClient.contentManager_29  TotalBytesDownloaded:vector  ETV
attr source  ContentManager_TotalBytesDownloaded
attr title  "Total of Bytes Downloaded, vector"
attr unit  B
vector 933  BasicTopology.peer[12].bitTorrentApp.bitTorrentClient.contentManager_29  PiecesDownloaded:vector  ETV
attr source  ContentManager_PieceDownloaded
attr title  "Pieces Downloaded, vector"
vector 885  BasicTopology.peer[6].bitTorrentApp.bitTorrentClient.contentManager_29  PiecesDownloaded:vector  ETV
attr source  ContentManager_PieceDownloaded
attr title  "Pieces Downloaded, vector"
0	64859681	259201	259201
0	64859682	259201	259201
0	64859684	259201	259201
0	64859685	259201	259201
0	64859686	259201	259201
0	64859687	259201	259201
0	64859688	259201	259201
0	64859689	259201	259201
0	64859690	259201	259201
0	64859691	259201	259201
0	64859692	259201	259201
0	64859693	259201	259201
0	64859694	259201	259201
0	64859695	259201	259201
0	64859696	259201	259201
0	64859697	259201	259201
0	64859698	259201	259201
0	64859699	259201	259201
0	64859700	259201	259201
0	98139043	259273.207347439363	259273.20734744
0	98345879	259273.77424402055	259273.77424402
0	98584442	259274.278292146665	259274.27829215
0	99393188	259276.982636771715	259276.98263677
0	102983094	259296.067662465694	259296.06766247
0	104008170	259304.098921153439	259304.09892115
0	104707110	259313.305265912041	259313.30526591
0	105047248	259501	259501
0	106311207	259504.92209542267	259504.92209542
0	111552198	259520.796878832887	259520.79687883
0	111672744	259521.133903858283	259521.13390386
0	111882186	259522.037030503778	259522.0370305
0	111926804	259522.136879946089	259522.13687995
0	112742721	259527.029729064562	259527.02972906
0	117294476	259904.386256583545	259904.38625658
0	117433429	259906.43539735323	259906.43539735
0	125379819	261191.208497167362	261191.20849717
0	127093029	261301.958984291897	261301.95898429
0	132817619	262910.323445457021	262910.32344546
0	132868048	262911.383734420113	262911.38373442
0	132964873	262913.808931254164	262913.80893125
1	64859246	259200	259200
1	64859247	259200	259200
1	64859248	259200	259200
1	64859249	259200	259200
1	64859250	259200	259200
1	64859681	259201	259201
1	64859682	259201	259201
1	64859683	259201	259201
1	64859684	259201	259201
1	64859685	259201	259201
1	64859686	259201	259201
1	64859687	259201	259201
1	64859688	259201	259201
1	64859689	259201	259201
1	64859690	259201	259201
1	64859691	259201	259201
1	64859692	259201	259201
1	64859693	259201	259201
1	64859694	259201	259201
1	64859695	259201	259201
1	64859696	259201	259201
1	64859697	259201	259201
1	64859698	259201	259201
1	64859699	259201	259201
1	64859700	259201	259201
3	64859246	259200	6
3	64859247	259200	7
3	64859248	259200	8
3	64859249	259200	9
3	64859250	259200	10
3	64859681	259201	11
3	64859682	259201	12
3	64859683	259201	13
3	64859684	259201	14
3	64859685	259201	15
3	64859686	259201	16
3	64859687	259201	17
3	64859688	259201	18
3	64859689	259201	19
3	64859690	259201	20
3	64859691	259201	21
3	64859692	259201	22
3	64859693	259201	23
3	64859694	259201	24
3	64859695	259201	25
3	64859696	259201	26
3	64859697	259201	27
3	64859698	259201	28
3	64859699	259201	29
3	64859700	259201	30
4	98139043	259273.207347439363	68.579452083045
4	98345879	259273.77424402055	67.121645336498
4	98584442	259274.278292146665	72.803690076375
4	99393188	259276.982636771715	75.504135321502
4	102983094	259296.067662465694	91.499581146551
4	104008170	259304.098921153439	63.689875537825
4	104707110	259313.305265912041	72.258637718302
4	106311207	259504.92209542267	298.68272080029
4	111552198	259520.796878832887	311.85916305722
4	111672744	259521.133903858283	312.95669569449
4	111882186	259522.037030503778	320.13496095288
4	111926804	259522.136879946089	314.40452907151
4	112742721	259527.029729064562	22.374587301596
4	117294476	259904.386256583545	695.79938713919
4	117433429	259906.43539735323	687.42419225024
4	125379819	261191.208497167362	40.843827163258
4	127093029	261301.958984291897	281.74438980424
4	132817619	262910.323445457021	1063.5601830341
4	132868048	262911.383734420113	1057.6580487164
4	132964873	262913.808931254164	1060.6673445194
5	71089471	259216.789669744837	17
5	72474677	259219.524834692112	14
5	73094606	259220.593757615959	27
5	73487227	259221.464477644526	11
5	73837107	259222.28356295132	29
5	73915057	259222.381770490449	15
5	76733381	259228.695959641039	19
5	77434571	259230.344040173545	20
5	77918827	259231.492667555492	24
5	79364124	259234.924318661411	16
5	79559649	259235.323919765762	14
5	81459846	259238.990270837886	15
5	81974314	259240.124283500032	11
5	84019997	259244.691432098532	30
5	84240241	259245.218876041773	29
5	84491810	259245.72397641996	27
5	85286491	259247.381462277735	22
5	85457567	259247.713119037368	19
5	86978372	259250.761070275684	20
5	88362094	259253.489608764531	15
5	89754531	259256.173346136913	24
5	90740563	259258.540235531086	14
5	91017862	259259.009746480641	11
5	91062287	259259.074320323835	21
5	91095164	259259.119585427075	16
5	92573719	259262.168069410792	27
5	94082713	259264.782984165105	26
5	95140780	259266.849184767462	19
5	95887757	259268.158932212335	29
5	96284954	259268.887605952609	20
5	98139043	259273.207347439363	11
5	98345879	259273.77424402055	15
5	98584442	259274.278292146665	14
5	98651665	259274.526771617334	24
5	98810249	259274.943883997536	21
5	99393188	259276.982636771715	27
5	99606693	259277.669499335554	16
5	101419188	259285.52923866406	26
5	102360656	259291.523656439903	21
5	102983094	259296.067662465694	29
5	103844778	259302.071392120159	26
5	104008170	259304.098921153439	21
5	104707110	259313.305265912041	26
5	106311207	259504.92209542267	19
5	106413812	259505.155447309473	17
5	108141644	259510.453010415804	13
5	109402890	259514.018084106258	17
5	109938518	259515.900279662031	13
5	111551609	259520.79597892002	13
5	111552198	259520.796878832887	24
5	111672744	259521.133903858283	20
5	111882186	259522.037030503778	17
5	111926804	259522.136879946089	16
5	112742721	259527.029729064562	13
5	113137638	259850.42498284517	30
5	113281947	259852.563039519515	22
5	115037635	259877.392589595155	30
5	115227496	259879.732702173898	22
5	117294476	259904.386256583545	22
5	117433429	259906.43539735323	30
5	119722926	261041.742499306486	25
5	122280329	261159.020091144811	23
5	123431308	261167.198042092823	23
5	124331296	261175.56380006409	23
5	125379819	261191.208497167362	23
5	125678691	261281.326633848737	25
5	126403869	261290.262978954227	25
5	127093029	261301.958984291897	25
5	128756131	261865.196880550962	28
5	129151302	261874.86471966562	18
5	129336703	261879.548662386255	12
5	129828142	261890.105505905623	28
5	130127126	261895.788511382408	18
5	130250479	261897.466923846235	12
5	130910140	261916.01971758583	28
5	131078126	261919.765185256337	18
5	131495913	261928.452365214847	12
5	132817619	262910.323445457021	28
5	132868048	262911.383734420113	12
5	132964873	262913.808931254164	18
17	64859681	259201	259201
17	98139043	259273.207347439363	259273.20734744
19	64859682	259201	259201
19	132868048	262911.383734420113	262911.38373442
21	105047248	259501	259501
21	112742721	259527.029729064562	259527.02972906
23	64859684	259201	259201
23	98584442	259274.278292146665	259274.27829215
25	64859685	259201	259201
25	98345879	259273.77424402055	259273.77424402
27	64859686	259201	259201
27	111926804	259522.136879946089	259522.13687995
29	64859687	259201	259201
29	111882186	259522.037030503778	259522.0370305
31	64859688	259201	259201
31	132964873	262913.808931254164	262913.80893125
33	64859689	259201	259201
33	106311207	259504.92209542267	259504.92209542
35	64859690	259201	259201
35	111672744	259521.133903858283	259521.13390386
37	64859691	259201	259201
37	104008170	259304.098921153439	259304.09892115
39	64859692	259201	259201
39	117294476	259904.386256583545	259904.38625658
41	64859693	259201	259201
41	125379819	261191.208497167362	261191.20849717
43	64859694	259201	259201
43	111552198	259520.796878832887	259520.79687883
45	64859695	259201	259201
45	127093029	261301.958984291897	261301.95898429
47	64859696	259201	259201
47	104707110	259313.305265912041	259313.30526591
49	64859697	259201	259201
49	99393188	259276.982636771715	259276.98263677
51	64859698	259201	259201
51	132817619	262910.323445457021	262910.32344546
53	64859699	259201	259201
53	102983094	259296.067662465694	259296.06766247
55	64859700	259201	259201
55	117433429	259906.43539735323	259906.43539735
839	85784450	259248.334045102641	32768
839	85784491	259248.334151626856	65536
839	85784512	259248.334662176183	98304
839	85790944	259248.350576207925	131072
839	85796682	259248.363519456361	163840
839	85800578	259248.37188563845	196608
839	85800666	259248.372090023063	229376
839	85801348	259248.373855041795	262144
839	85801776	259248.37485495105	294912
839	85801980	259248.375231324146	327680
839	85802313	259248.376022662668	360448
839	85803521	259248.378941090563	393216
839	85803670	259248.37922788194	425984
839	85805812	259248.383697790733	458752
839	85807605	259248.387505797205	491520
839	85808281	259248.388991387443	524288
839	85808837	259248.390318288599	557056
839	85810679	259248.394124026461	589824
839	85810760	259248.394292023506	622592
839	85822528	259248.419591587311	655360
839	85822839	259248.420121701384	688128
839	85828511	259248.43104212153	720896
839	85841871	259248.453078123212	753664
839	85847353	259248.462297138658	786432
839	85861670	259248.486337475757	819200
839	85907818	259248.669447941511	851968
839	85907921	259248.669646132777	884736
839	85908360	259248.670696956783	917504
839	85908552	259248.671270567169	950272
839	85914083	259248.685920640818	983040
839	85921647	259248.701270305974	1015808
839	85922049	259248.702716812028	1048576
839	85932034	259248.727262206824	1081344
839	85932039	259248.727340338913	1114112
839	85941761	259248.746115988337	1146880
839	86285713	259249.454683455734	1179648
839	86304606	259249.480047566851	1212416
839	86370082	259249.557085941274	1245184
839	86372838	259249.561686269045	1277952
839	86375374	259249.566156925746	1310720
839	86892616	259250.586310100869	1343488
839	86910562	259250.615419811838	1376256
839	86927388	259250.648335996908	1409024
839	86941212	259250.676461538193	1441792
839	86944778	259250.683770401652	1474560
839	86956673	259250.708506412063	1507328
839	86968516	259250.732900577405	1540096
839	87473903	259251.760205984937	1572864
839	87487070	259251.78839598583	1605632
839	87502108	259251.822360697482	1638400
839	87886543	259252.592231265942	1671168
839	87925391	259252.645793580621	1703936
839	88032916	259252.84974149075	1736704
839	88046772	259252.877054102857	1769472
839	88516195	259253.712705458675	1802240
839	88544176	259253.751593083705	1835008
839	88580772	259253.820294899386	1867776
839	88628931	259253.923538123179	1900544
839	88640094	259253.946095682817	1933312
839	88656718	259253.978699898315	1966080
839	88664950	259253.993884963657	1998848
839	88685231	259254.040494054483	2031616
839	88998485	259254.859922016637	2064384
839	89024283	259254.890839348992	2097152
839	89124833	259255.057698286806	2129920
839	89134706	259255.071520911427	2162688
839	89164092	259255.114446070825	2195456
839	89556120	259255.914930550789	2228224
839	89601257	259255.971614410939	2260992
839	89697630	259256.086641484915	2293760
839	89758388	259256.180444822604	2326528
839	90173122	259257.224439286112	2359296
839	90191730	259257.251687142103	2392064
839	90627319	259258.310042133359	2424832
839	90634729	259258.337326257801	2457600
839	90649591	259258.373287640921	2490368
839	91073187	259259.088895359956	2523136
839	91095599	259259.120258610383	2555904
839	91120777	259259.169736791069	2588672
839	91121595	259259.171431850303	2621440
839	91128728	259259.185218669223	2654208
839	91251372	259259.438227609616	2686976
839	91283659	259259.491588923033	2719744
839	91568335	259260.209719831078	2752512
839	91586952	259260.236202114856	2785280
839	91629566	259260.287450412768	2818048
839	91631380	259260.289582764766	2850816
839	91720791	259260.487006437217	2883584
839	92105757	259261.31301466728	2916352
839	92128356	259261.339181263102	2949120
839	92263698	259261.527109354395	2981888
839	92288633	259261.579467809136	3014656
839	92301214	259261.605689569317	3047424
839	92315527	259261.635930823941	3080192
839	92329055	259261.664857797378	3112960
839	92335743	259261.674410039727	3145728
839	92355590	259261.702584611439	3178496
839	92699646	259262.366894730587	3211264
839	92712254	259262.391021877295	3244032