version 2
run Test-0-20171016-12:14:21-8819
attr configname Test
attr datetime 20171016-12:14:21
attr experiment "\"Simulation Test\""
attr inifile BasicConfig.ini
attr iterationvars ""
attr iterationvars2 $repetition=0
attr measurement "\"Peers: $peers, Rate: $rate\""
attr network BasicTopology
attr processid 8819
attr repetition 0
attr replication #0
attr resultdir results
attr runnumber 0
attr seedset 0

vector 1  BasicTopology  EnterSwarm:vector  ETV
attr ""  ""
attr source  SwarmManager_EnterSwarm
attr title  "Enter Swarm Time, vector"
vector 3  BasicTopology  SwarmEmittedPeerId:vector  ETV
attr ""  ""
attr source  SwarmManager_EmittedPeerId
attr title  "Peer Swarm Signal Emitted, vector"
vector 17  BasicTopology.peer[5].bitTorrentApp.bitTorrentClient  DownloadComplete_Test:vector  ETV
attr source  BitTorrentClient_DownloadComplete_Test
attr title  "Descargas completas (prueba), vector"
vector 0  BasicTopology  DownloadComplete_Test:vector  ETV
attr source  BitTorrentClient_DownloadComplete_Test
attr title  "Tiempo de desacarga (prueba), vector"
vector 19  BasicTopology.peer[6].bitTorrentApp.bitTorrentClient  DownloadComplete_Test:vector  ETV
attr source  BitTorrentClient_DownloadComplete_Test
attr title  "Descargas completas (prueba), vector"
vector 21  BasicTopology.peer[7].bitTorrentApp.bitTorrentClient  DownloadComplete_Test:vector  ETV
attr source  BitTorrentClient_DownloadComplete_Test
attr title  "Descargas completas (prueba), vector"
vector 23  BasicTopology.peer[8].bitTorrentApp.bitTorrentClient  DownloadComplete_Test:vector  ETV
attr source  BitTorrentClient_DownloadComplete_Test
attr title  "Descargas completas (prueba), vector"
vector 25  BasicTopology.peer[9].bitTorrentApp.bitTorrentClient  DownloadComplete_Test:vector  ETV
attr source  BitTorrentClient_DownloadComplete_Test
attr title  "Descargas completas (prueba), vector"
vector 27  BasicTopology.peer[10].bitTorrentApp.bitTorrentClient  DownloadComplete_Test:vector  ETV
attr source  BitTorrentClient_DownloadComplete_Test
attr title  "Descargas completas (prueba), vector"
vector 29  BasicTopology.peer[11].bitTorrentApp.bitTorrentClient  DownloadComplete_Test:vector  ETV
attr source  BitTorrentClient_DownloadComplete_Test
attr title  "Descargas completas (prueba), vector"
vector 31  BasicTopology.peer[12].bitTorrentApp.bitTorrentClient  DownloadComplete_Test:vector  ETV
attr source  BitTorrentClient_DownloadComplete_Test
attr title  "Descargas completas (prueba), vector"
vector 33  BasicTopology.peer[13].bitTorrentApp.bitTorrentClient  DownloadComplete_Test:vector  ETV
attr source  BitTorrentClient_DownloadComplete_Test
attr title  "Descargas completas (prueba), vector"
vector 35  BasicTopology.peer[14].bitTorrentApp.bitTorrentClient  DownloadComplete_Test:vector  ETV
attr source  BitTorrentClient_DownloadComplete_Test
attr title  "Descargas completas (prueba), vector"
vector 37  BasicTopology.peer[15].bitTorrentApp.bitTorrentClient  DownloadComplete_Test:vector  ETV
attr source  BitTorrentClient_DownloadComplete_Test
attr title  "Descargas completas (prueba), vector"
vector 39  BasicTopology.peer[16].bitTorrentApp.bitTorrentClient  DownloadComplete_Test:vector  ETV
attr source  BitTorrentClient_DownloadComplete_Test
attr title  "Descargas completas (prueba), vector"
vector 41  BasicTopology.peer[17].bitTorrentApp.bitTorrentClient  DownloadComplete_Test:vector  ETV
attr source  BitTorrentClient_DownloadComplete_Test
attr title  "Descargas completas (prueba), vector"
vector 43  BasicTopology.peer[18].bitTorrentApp.bitTorrentClient  DownloadComplete_Test:vector  ETV
attr source  BitTorrentClient_DownloadComplete_Test
attr title  "Descargas completas (prueba), vector"
vector 45  BasicTopology.peer[19].bitTorrentApp.bitTorrentClient  DownloadComplete_Test:vector  ETV
attr source  BitTorrentClient_DownloadComplete_Test
attr title  "Descargas completas (prueba), vector"
vector 47  BasicTopology.peer[20].bitTorrentApp.bitTorrentClient  DownloadComplete_Test:vector  ETV
attr source  BitTorrentClient_DownloadComplete_Test
attr title  "Descargas completas (prueba), vector"
vector 49  BasicTopology.peer[21].bitTorrentApp.bitTorrentClient  DownloadComplete_Test:vector  ETV
attr source  BitTorrentClient_DownloadComplete_Test
attr title  "Descargas completas (prueba), vector"
vector 51  BasicTopology.peer[22].bitTorrentApp.bitTorrentClient  DownloadComplete_Test:vector  ETV
attr source  BitTorrentClient_DownloadComplete_Test
attr title  "Descargas completas (prueba), vector"
vector 53  BasicTopology.peer[23].bitTorrentApp.bitTorrentClient  DownloadComplete_Test:vector  ETV
attr source  BitTorrentClient_DownloadComplete_Test
attr title  "Descargas completas (prueba), vector"
vector 55  BasicTopology.peer[24].bitTorrentApp.bitTorrentClient  DownloadComplete_Test:vector  ETV
attr source  BitTorrentClient_DownloadComplete_Test
attr title  "Descargas completas (prueba), vector"
vector 839  BasicTopology.peer[0].bitTorrentApp.bitTorrentClient.contentManager_29  TotalBytesUploaded:vector  ETV
attr source  ContentManager_TotalBytesUploaded
attr title  "Total of Bytes Uploaded, vector"
attr unit  B
vector 855  BasicTopology.peer[2].bitTorrentApp.bitTorrentClient.contentManager_29  TotalBytesUploaded:vector  ETV
attr source  ContentManager_TotalBytesUploaded
attr title  "Total of Bytes Uploaded, vector"
attr unit  B
vector 847  BasicTopology.peer[1].bitTorrentApp.bitTorrentClient.contentManager_29  TotalBytesUploaded:vector  ETV
attr source  ContentManager_TotalBytesUploaded
attr title  "Total of Bytes Uploaded, vector"
attr unit  B
vector 871  BasicTopology.peer[4].bitTorrentApp.bitTorrentClient.contentManager_29  TotalBytesUploaded:vector  ETV
attr source  ContentManager_TotalBytesUploaded
attr title  "Total of Bytes Uploaded, vector"
attr unit  B
vector 966  BasicTopology.peer[16].bitTorrentApp.bitTorrentClient.contentManager_29  TotalBytesDownloaded:vector  ETV
attr source  ContentManager_TotalBytesDownloaded
attr title  "Total of Bytes Downloaded, vector"
attr unit  B
vector 1022  BasicTopology.peer[23].bitTorrentApp.bitTorrentClient.contentManager_29  TotalBytesDownloaded:vector  ETV
attr source  ContentManager_TotalBytesDownloaded
attr title  "Total of Bytes Downloaded, vector"
attr unit  B
vector 950  BasicTopology.peer[14].bitTorrentApp.bitTorrentClient.contentManager_29  TotalBytesDownloaded:vector  ETV
attr source  ContentManager_TotalBytesDownloaded
attr title  "Total of Bytes Downloaded, vector"
attr unit  B
vector 902  BasicTopology.peer[8].bitTorrentApp.bitTorrentClient.contentManager_29  TotalBytesDownloaded:vector  ETV
attr source  ContentManager_TotalBytesDownloaded
attr title  "Total of Bytes Downloaded, vector"
attr unit  B
vector 910  BasicTopology.peer[9].bitTorrentApp.bitTorrentClient.contentManager_29  TotalBytesDownloaded:vector  ETV
attr source  ContentManager_TotalBytesDownloaded
attr title  "Total of Bytes Downloaded, vector"
attr unit  B
vector 1030  BasicTopology.peer[24].bitTorrentApp.bitTorrentClient.contentManager_29  TotalBytesDownloaded:vector  ETV
attr source  ContentManager_TotalBytesDownloaded
attr title  "Total of Bytes Downloaded, vector"
attr unit  B
vector 909  BasicTopology.peer[9].bitTorrentApp.bitTorrentClient.contentManager_29  PiecesDownloaded:vector  ETV
attr source  ContentManager_PieceDownloaded
attr title  "Pieces Downloaded, vector"
vector 911  BasicTopology.peer[9].bitTorrentApp.bitTorrentClient.contentManager_29  TotalBytesUploaded:vector  ETV
attr source  ContentManager_TotalBytesUploaded
attr title  "Total of Bytes Uploaded, vector"
attr unit  B
vector 1021  BasicTopology.peer[23].bitTorrentApp.bitTorrentClient.contentManager_29  PiecesDownloaded:vector  ETV
attr source  ContentManager_PieceDownloaded
attr title  "Pieces Downloaded, vector"
vector 1023  BasicTopology.peer[23].bitTorrentApp.bitTorrentClient.contentManager_29  TotalBytesUploaded:vector  ETV
attr source  ContentManager_TotalBytesUploaded
attr title  "Total of Bytes Uploaded, vector"
attr unit  B
vector 949  BasicTopology.peer[14].bitTorrentApp.bitTorrentClient.contentManager_29  PiecesDownloaded:vector  ETV
attr source  ContentManager_PieceDownloaded
attr title  "Pieces Downloaded, vector"
vector 951  BasicTopology.peer[14].bitTorrentApp.bitTorrentClient.contentManager_29  TotalBytesUploaded:vector  ETV
attr source  ContentManager_TotalBytesUploaded
attr title  "Total of Bytes Uploaded, vector"
attr unit  B
vector 901  BasicTopology.peer[8].bitTorrentApp.bitTorrentClient.contentManager_29  PiecesDownloaded:vector  ETV
attr source  ContentManager_PieceDownloaded
attr title  "Pieces Downloaded, vector"
vector 903  BasicTopology.peer[8].bitTorrentApp.bitTorrentClient.contentManager_29  TotalBytesUploaded:vector  ETV
attr source  ContentManager_TotalBytesUploaded
attr title  "Total of Bytes Uploaded, vector"
attr unit  B
vector 1029  BasicTopology.peer[24].bitTorrentApp.bitTorrentClient.contentManager_29  PiecesDownloaded:vector  ETV
attr source  ContentManager_PieceDownloaded
attr title  "Pieces Downloaded, vector"
vector 1031  BasicTopology.peer[24].bitTorrentApp.bitTorrentClient.contentManager_29  TotalBytesUploaded:vector  ETV
attr source  ContentManager_TotalBytesUploaded
attr title  "Total of Bytes Uploaded, vector"
attr unit  B
vector 998  BasicTopology.peer[20].bitTorrentApp.bitTorrentClient.contentManager_29  TotalBytesDownloaded:vector  ETV
attr source  ContentManager_TotalBytesDownloaded
attr title  "Total of Bytes Downloaded, vector"
attr unit  B
vector 894  BasicTopology.peer[7].bitTorrentApp.bitTorrentClient.contentManager_29  TotalBytesDownloaded:vector  ETV
attr source  ContentManager_TotalBytesDownloaded
attr title  "Total of Bytes Downloaded, vector"
attr unit  B
vector 965  BasicTopology.peer[16].bitTorrentApp.bitTorrentClient.contentManager_29  PiecesDownloaded:vector  ETV
attr source  ContentManager_PieceDownloaded
attr title  "Pieces Downloaded, vector"
vector 967  BasicTopology.peer[16].bitTorrentApp.bitTorrentClient.contentManager_29  TotalBytesUploaded:vector  ETV
attr source  ContentManager_TotalBytesUploaded
attr title  "Total of Bytes Uploaded, vector"
attr unit  B
vector 997  BasicTopology.peer[20].bitTorrentApp.bitTorrentClient.contentManager_29  PiecesDownloaded:vector  ETV
attr source  ContentManager_PieceDownloaded
attr title  "Pieces Downloaded, vector"
vector 999  BasicTopology.peer[20].bitTorrentApp.bitTorrentClient.contentManager_29  TotalBytesUploaded:vector  ETV
attr source  ContentManager_TotalBytesUploaded
attr title  "Total of Bytes Uploaded, vector"
attr unit  B
vector 893  BasicTopology.peer[7].bitTorrentApp.bitTorrentClient.contentManager_29  PiecesDownloaded:vector  ETV
attr source  ContentManager_PieceDownloaded
attr title  "Pieces Downloaded, vector"
vector 5  BasicTopology  DownloadEmittedPeerId:vector  ETV
attr source  ContentManager_EmittedPeerId
attr title  "Peer Download Signal Emitted, vector"
vector 895  BasicTopology.peer[7].bitTorrentApp.bitTorrentClient.contentManager_29  TotalBytesUploaded:vector  ETV
attr source  ContentManager_TotalBytesUploaded
attr title  "Total of Bytes Uploaded, vector"
attr unit  B
vector 990  BasicTopology.peer[19].bitTorrentApp.bitTorrentClient.contentManager_29  TotalBytesDownloaded:vector  ETV
attr source  ContentManager_TotalBytesDownloaded
attr title  "Total of Bytes Downloaded, vector"
attr unit  B
vector 989  BasicTopology.peer[19].bitTorrentApp.bitTorrentClient.contentManager_29  PiecesDownloaded:vector  ETV
attr source  ContentManager_PieceDownloaded
attr title  "Pieces Downloaded, vector"
vector 863  BasicTopology.peer[3].bitTorrentApp.bitTorrentClient.contentManager_29  TotalBytesUploaded:vector  ETV
attr source  ContentManager_TotalBytesUploaded
attr title  "Total of Bytes Uploaded, vector"
attr unit  B
vector 4  BasicTopology  DownloadComplete:vector  ETV
attr source  ContentManager_100_percentDownloadTime
attr title  "Download Complete, vector"
attr unit  s
vector 991  BasicTopology.peer[19].bitTorrentApp.bitTorrentClient.contentManager_29  TotalBytesUploaded:vector  ETV
attr source  ContentManager_TotalBytesUploaded
attr title  "Total of Bytes Uploaded, vector"
attr unit  B
vector 942  BasicTopology.peer[13].bitTorrentApp.bitTorrentClient.contentManager_29  TotalBytesDownloaded:vector  ETV
attr source  ContentManager_TotalBytesDownloaded
attr title  "Total of Bytes Downloaded, vector"
attr unit  B
vector 934  BasicTopology.peer[12].bitTorrentApp.bitTorrentClient.contentManager_29  TotalBytesDownloaded:vector  ETV
attr source  ContentManager_TotalBytesDownloaded
attr title  "Total of Bytes Downloaded, vector"
attr unit  B
vector 933  BasicTopology.peer[12].bitTorrentApp.bitTorrentClient.contentManager_29  PiecesDownloaded:vector  ETV
attr source  ContentManager_PieceDownloaded
attr title  "Pieces Downloaded, vector"
vector 941  BasicTopology.peer[13].bitTorrentApp.bitTorrentClient.contentManager_29  PiecesDownloaded:vector  ETV
attr source  ContentManager_PieceDownloaded
attr title  "Pieces Downloaded, vector"
vector 1014  BasicTopology.peer[22].bitTorrentApp.bitTorrentClient.contentManager_29  TotalBytesDownloaded:vector  ETV
attr source  ContentManager_TotalBytesDownloaded
attr title  "Total of Bytes Downloaded, vector"
attr unit  B
vector 1013  BasicTopology.peer[22].bitTorrentApp.bitTorrentClient.contentManager_29  PiecesDownloaded:vector  ETV
attr source  ContentManager_PieceDownloaded
attr title  "Pieces Downloaded, vector"
vector 974  BasicTopology.peer[17].bitTorrentApp.bitTorrentClient.contentManager_29  TotalBytesDownloaded:vector  ETV
attr source  ContentManager_TotalBytesDownloaded
attr title  "Total of Bytes Downloaded, vector"
attr unit  B
vector 973  BasicTopology.peer[17].bitTorrentApp.bitTorrentClient.contentManager_29  PiecesDownloaded:vector  ETV
attr source  ContentManager_PieceDownloaded
attr title  "Pieces Downloaded, vector"
vector 975  BasicTopology.peer[17].bitTorrentApp.bitTorrentClient.contentManager_29  TotalBytesUploaded:vector  ETV
attr source  ContentManager_TotalBytesUploaded
attr title  "Total of Bytes Uploaded, vector"
attr unit  B
vector 926  BasicTopology.peer[11].bitTorrentApp.bitTorrentClient.contentManager_29  TotalBytesDownloaded:vector  ETV
attr source  ContentManager_TotalBytesDownloaded
attr title  "Total of Bytes Downloaded, vector"
attr unit  B
vector 1006  BasicTopology.peer[21].bitTorrentApp.bitTorrentClient.contentManager_29  TotalBytesDownloaded:vector  ETV
attr source  ContentManager_TotalBytesDownloaded
attr title  "Total of Bytes Downloaded, vector"
attr unit  B
vector 925  BasicTopology.peer[11].bitTorrentApp.bitTorrentClient.contentManager_29  PiecesDownloaded:vector  ETV
attr source  ContentManager_PieceDownloaded
attr title  "Pieces Downloaded, vector"
vector 1005  BasicTopology.peer[21].bitTorrentApp.bitTorrentClient.contentManager_29  PiecesDownloaded:vector  ETV
attr source  ContentManager_PieceDownloaded
attr title  "Pieces Downloaded, vector"
vector 1007  BasicTopology.peer[21].bitTorrentApp.bitTorrentClient.contentManager_29  TotalBytesUploaded:vector  ETV
attr source  ContentManager_TotalBytesUploaded
attr title  "Total of Bytes Uploaded, vector"
attr unit  B
vector 927  BasicTopology.peer[11].bitTorrentApp.bitTorrentClient.contentManager_29  TotalBytesUploaded:vector  ETV
attr source  ContentManager_TotalBytesUploaded
attr title  "Total of Bytes Uploaded, vector"
attr unit  B
vector 935  BasicTopology.peer[12].bitTorrentApp.bitTorrentClient.contentManager_29  TotalBytesUploaded:vector  ETV
attr source  ContentManager_TotalBytesUploaded
attr title  "Total of Bytes Uploaded, vector"
attr unit  B
vector 918  BasicTopology.peer[10].bitTorrentApp.bitTorrentClient.contentManager_29  TotalBytesDownloaded:vector  ETV
attr source  ContentManager_TotalBytesDownloaded
attr title  "Total of Bytes Downloaded, vector"
attr unit  B
vector 917  BasicTopology.peer[10].bitTorrentApp.bitTorrentClient.contentManager_29  PiecesDownloaded:vector  ETV
attr source  ContentManager_PieceDownloaded
attr title  "Pieces Downloaded, vector"
vector 982  BasicTopology.peer[18].bitTorrentApp.bitTorrentClient.contentManager_29  TotalBytesDownloaded:vector  ETV
attr source  ContentManager_TotalBytesDownloaded
attr title  "Total of Bytes Downloaded, vector"
attr unit  B
vector 981  BasicTopology.peer[18].bitTorrentApp.bitTorrentClient.contentManager_29  PiecesDownloaded:vector  ETV
attr source  ContentManager_PieceDownloaded
attr title  "Pieces Downloaded, vector"
vector 958  BasicTopology.peer[15].bitTorrentApp.bitTorrentClient.contentManager_29  TotalBytesDownloaded:vector  ETV
attr source  ContentManager_TotalBytesDownloaded
attr title  "Total of Bytes Downloaded, vector"
attr unit  B
vector 957  BasicTopology.peer[15].bitTorrentApp.bitTorrentClient.contentManager_29  PiecesDownloaded:vector  ETV
attr source  ContentManager_PieceDownloaded
attr title  "Pieces Downloaded, vector"
vector 886  BasicTopology.peer[6].bitTorrentApp.bitTorrentClient.contentManager_29  TotalBytesDownloaded:vector  ETV
attr source  ContentManager_TotalBytesDownloaded
attr title  "Total of Bytes Downloaded, vector"
attr unit  B
vector 885  BasicTopology.peer[6].bitTorrentApp.bitTorrentClient.contentManager_29  PiecesDownloaded:vector  ETV
attr source  ContentManager_PieceDownloaded
attr title  "Pieces Downloaded, vector"
vector 878  BasicTopology.peer[5].bitTorrentApp.bitTorrentClient.contentManager_29  TotalBytesDownloaded:vector  ETV
attr source  ContentManager_TotalBytesDownloaded
attr title  "Total of Bytes Downloaded, vector"
attr unit  B
vector 877  BasicTopology.peer[5].bitTorrentApp.bitTorrentClient.contentManager_29  PiecesDownloaded:vector  ETV
attr source  ContentManager_PieceDownloaded
attr title  "Pieces Downloaded, vector"
0	64859785	259201	259201
0	64859786	259201	259201
0	64859787	259201	259201
0	64859788	259201	259201
0	64859789	259201	259201
0	64859790	259201	259201
0	64859791	259201	259201
0	64859792	259201	259201
0	64859793	259201	259201
0	64859794	259201	259201
0	64859795	259201	259201
0	64859796	259201	259201
0	64859797	259201	259201
0	64859798	259201	259201
0	64859799	259201	259201
0	64859800	259201	259201
0	64859801	259201	259201
0	64859802	259201	259201
0	64859803	259201	259201
0	64859804	259201	259201
0	84872823	259257.053913743524	259257.05391374
0	87525718	259264.817427728254	259264.81742773
0	88087587	259267.000816950123	259267.00081695
0	93333231	259307.244297710539	259307.24429771
0	93568413	259503.507928522959	259503.50792852
0	93898771	259505.983644201687	259505.9836442
0	93944683	259506.750344436503	259506.75034444
0	94004256	259508.090525912462	259508.09052591
0	94863461	259814.711182958259	259814.71118296
0	97919659	260283.549626762535	260283.54962676
0	109552641	260597.143267208701	260597.14326721
0	109867040	260601.439563767179	260601.43956377
0	110879258	260682.326634708411	260682.32663471
0	111136204	260943.942757092673	260943.94275709
0	113487006	261083.044330368614	261083.04433037
0	113638581	261087.664670617852	261087.66467062
0	116924790	261499.162652122498	261499.16265212
0	118100309	261879.160497523491	261879.16049752
0	124894313	267846.318279075613	267846.31827908
0	128686578	269262.479861630239	269262.47986163
1	64859350	259200	259200
1	64859351	259200	259200
1	64859352	259200	259200
1	64859353	259200	259200
1	64859354	259200	259200
1	64859785	259201	259201
1	64859786	259201	259201
1	64859787	259201	259201
1	64859788	259201	259201
1	64859789	259201	259201
1	64859790	259201	259201
1	64859791	259201	259201
1	64859792	259201	259201
1	64859793	259201	259201
1	64859794	259201	259201
1	64859795	259201	259201
1	64859796	259201	259201
1	64859797	259201	259201
1	64859798	259201	259201
1	64859799	259201	259201
1	64859800	259201	259201
1	64859801	259201	259201
1	64859802	259201	259201
1	64859803	259201	259201
1	64859804	259201	259201
3	64859350	259200	6
3	64859351	259200	7
3	64859352	259200	8
3	64859353	259200	9
3	64859354	259200	10
3	64859785	259201	11
3	64859786	259201	12
3	64859787	259201	13
3	64859788	259201	14
3	64859789	259201	15
3	64859790	259201	16
3	64859791	259201	17
3	64859792	259201	18
3	64859793	259201	19
3	64859794	259201	20
3	64859795	259201	21
3	64859796	259201	22
3	64859797	259201	23
3	64859798	259201	24
3	64859799	259201	25
3	64859800	259201	26
3	64859801	259201	27
3	64859802	259201	28
3	64859803	259201	29
3	64859804	259201	30
4	84872823	259257.053913743524	54.224449933252
4	87525718	259264.817427728254	59.232160408484
4	88087587	259267.000816950123	60.062721283214
4	93333231	259307.244297710539	63.405228752639
4	93568413	259503.507928522959	297.48997476668
4	93898771	259505.983644201687	296.76225580971
4	93944683	259506.750344436503	303.11321051039
4	94004256	259508.090525912462	302.70797816542
4	94863461	259814.711182958259	604.69314413226
4	97919659	260283.549626762535	179.97412169635
4	109552641	260597.143267208701	74.960192451281
4	109867040	260601.439563767179	76.791116177276
4	110879258	260682.326634708411	187.78101823208
4	111136204	260943.942757092673	419.46089482025
4	113487006	261083.044330368614	978.84084714093
4	113638581	261087.664670617852	85.46447514187
4	116924790	261499.162652122498	37.929839234864
4	118100309	261879.160497523491	1287.5828592792
4	124894313	267846.318279075613	3663.4519129377
4	128686578	269262.479861630239	373.08901639654
5	69922276	259217.183415416391	15
5	70049304	259217.651248173876	14
5	70573056	259219.281990359395	22
5	73799521	259228.080580098906	30
5	74251931	259229.623920914443	15
5	74390530	259230.111618460758	20
5	74593257	259230.784481236277	14
5	74596041	259230.792834397152	13
5	75074442	259232.183266303048	29
5	76387810	259235.361523173738	26
5	77349785	259237.462213958749	22
5	77854518	259238.657028191	15
5	79301104	259241.989586720777	14
5	81328432	259247.191328388397	29
5	82136199	259249.360667858421	26
5	82253349	259249.613854610065	20
5	82947661	259251.787250316653	22
5	83740469	259254.013491303509	13
5	84872823	259257.053913743524	15
5	85975205	259260.17773271776	30
5	86838995	259262.413960864753	26
5	87421760	259264.238440584996	29
5	87525718	259264.817427728254	14
5	88036049	259266.631279206265	20
5	88087587	259267.000816950123	22
5	88096942	259267.164033593407	25
5	89647625	259273.931044865344	13
5	90563273	259280.520093665584	25
5	91484090	259286.890955508477	30
5	92527975	259295.18985093745	25
5	93333231	259307.244297710539	25
5	93568413	259503.507928522959	30
5	93898771	259505.983644201687	26
5	93944683	259506.750344436503	29
5	94004256	259508.090525912462	20
5	94863461	259814.711182958259	13
5	95596624	260123.922136516868	19
5	95652536	260125.289217200567	18
5	96101864	260141.371715766268	18
5	96976914	260150.081300559895	18
5	97919659	260283.549626762535	18
5	98347011	260515.277470895397	28
5	100301428	260544.046177979022	27
5	100773821	260547.139871287947	23
5	101391664	260551.573507939395	17
5	102455709	260557.127559634484	19
5	102916006	260559.829434516945	27
5	104185817	260566.625854705299	23
5	104581190	260568.702997859981	28
5	104771578	260569.740916341541	17
5	106372093	260578.754201347196	23
5	106686807	260580.724310464379	27
5	108078397	260587.963481108811	17
5	109121781	260594.619736578232	28
5	109552641	260597.143267208701	23
5	109867040	260601.439563767179	27
5	110879258	260682.326634708411	28
5	111136204	260943.942757092673	17
5	111627341	261021.918715572778	24
5	112094211	261045.83371721346	24
5	112793740	261064.400633125246	19
5	112856267	261065.750252339456	24
5	113487006	261083.044330368614	19
5	113638581	261087.664670617852	24
5	114567362	261473.763920168675	21
5	115490362	261482.565897948361	21
5	116241178	261490.025731120509	21
5	116924790	261499.162652122498	21
5	117107101	261588.304137633327	16
5	117535579	261834.450419518964	16
5	117809038	261856.245662526132	16
5	118100309	261879.160497523491	16
5	120613971	264200.190721632596	12
5	121728870	264211.627960218642	12
5	122900264	264220.421128427831	12
5	124894313	267846.318279075613	12
5	126023412	268909.909980298543	11
5	126867636	268931.789289647962	11
5	127709260	268950.245522151856	11
5	128686578	269262.479861630239	11
17	64859785	259201	259201
17	128686578	269262.479861630239	269262.47986163
19	64859786	259201	259201
19	124894313	267846.318279075613	267846.31827908
21	64859787	259201	259201
21	94863461	259814.711182958259	259814.71118296
23	64859788	259201	259201
23	87525718	259264.817427728254	259264.81742773
25	64859789	259201	259201
25	84872823	259257.053913743524	259257.05391374
27	64859790	259201	259201
27	118100309	261879.160497523491	261879.16049752
29	64859791	259201	259201
29	111136204	260943.942757092673	260943.94275709
31	64859792	259201	259201
31	97919659	260283.549626762535	260283.54962676
33	64859793	259201	259201
33	113487006	261083.044330368614	261083.04433037
35	64859794	259201	259201
35	94004256	259508.090525912462	259508.09052591
37	64859795	259201	259201
37	116924790	261499.162652122498	261499.16265212
39	64859796	259201	259201
39	88087587	259267.000816950123	259267.00081695
41	64859797	259201	259201
41	109552641	260597.143267208701	260597.14326721
43	64859798	259201	259201
43	113638581	261087.664670617852	261087.66467062
45	64859799	259201	259201
45	93333231	259307.244297710539	259307.24429771
47	64859800	259201	259201
47	93898771	259505.983644201687	259505.9836442
49	64859801	259201	259201
49	109867040	260601.439563767179	260601.43956377
51	64859802	259201	259201
51	110879258	260682.326634708411	260682.32663471
53	64859803	259201	259201
53	93944683	259506.750344436503	259506.75034444
55	64859804	259201	259201
55	93568413	259503.507928522959	259503.50792852
839	64875736	259201.010608233046	32768
839	64876398	259201.011089715966	65536
839	64876529	259201.011222381909	98304
839	64879353	259201.013606749956	131072
839	64884601	259201.018083739851	163840
839	64897665	259201.031662567482	196608
839	64901407	259201.048697281202	229376
839	64905227	259201.074103883254	262144
839	64914601	259201.093102416601	294912
839	64919465	259201.103931646124	327680
839	65073149	259202.059537215633	360448
839	65073317	259202.060252124235	393216
839	65074490	259202.065904487507	425984
839	65078970	259202.088775755935	458752
839	65079002	259202.105638973824	491520
839	65079005	259202.106506370979	524288
839	65079010	259202.120246005514	557056
839	65079859	259202.124452234515	589824
839	65079861	259202.124507951552	622592
839	65079863	259202.124928216662	655360
839	65131461	259202.40142846344	688128
839	65135067	259202.413076936986	720896
839	65277075	259203.436503768495	753664
839	65480681	259204.067898869055	786432
839	65480903	259204.068733092357	819200
839	65482960	259204.075353818446	851968
839	65484478	259204.078411456394	884736
839	65489962	259204.088579419389	917504
839	65491983	259204.092595373694	950272
839	65493226	259204.094773669505	983040
839	65493496	259204.095345876786	1015808
839	65494270	259204.096896634631	1048576
839	65501133	259204.117521995971	1081344
839	65566697	259204.505862315643	1114112
839	65567349	259204.507484266256	1146880
839	65569471	259204.516147840137	1179648
839	65573399	259204.535018616411	1212416
839	65587109	259204.600960568991	1245184
839	65594750	259204.638898728668	1277952
839	65890268	259205.555311243555	1310720
839	65912215	259205.599853960418	1343488
839	66066973	259206.04788973632	1376256
839	66067129	259206.048168244987	1409024
839	66067187	259206.048285621793	1441792
839	66291032	259206.613972621703	1474560
839	66294983	259206.631595379583	1507328
839	66324411	259206.698185625	1540096
839	66428234	259206.906629093967	1572864
839	66457615	259206.964141347797	1605632
839	66473730	259206.997806132417	1638400
839	66484360	259207.046612614376	1671168
839	66493990	259207.09248633671	1703936
839	66703470	259207.641744900586	1736704
839	66727672	259207.68736232764	1769472
839	66729763	259207.69145498656	1802240
839	66746062	259207.722241718912	1835008
839	66772627	259207.791298182411	1867776
839	66818063	259207.877180289562	1900544
839	66915981	259208.165150801335	1933312
839	66931331	259208.232057339019	1966080
839	67149710	259208.770950903704	1998848
839	67153983	259208.779659866437	2031616
839	67164778	259208.801349982948	2064384
839	67177256	259208.826127361616	2097152
839	67187608	259208.855915494238	2129920
839	67198469	259208.883191819835	2162688
839	67215414	259208.919485082486	2195456
839	67234274	259208.975804355852	2228224
839	67358653	259209.308698061733	2260992
839	67382912	259209.356943194048	2293760
839	67416296	259209.420507726904	2326528
839	67630060	259209.915310930664	2359296
839	67648680	259209.952001248725	2392064
839	67654750	259209.963482778237	2424832
839	67675797	259210.003317703164	2457600
839	67687561	259210.023844861529	2490368
839	67711338	259210.070065835521	2523136
839	67733400	259210.11324346514	2555904
839	67875371	259210.451246622602	2588672
839	67911111	259210.524380589809	2621440
839	67922150	259210.549855651598	2654208
839	67933958	259210.609349839162	2686976
839	67942187	259210.649088324347	2719744
839	67952938	259210.700397306023	2752512
839	67972663	259210.775683201659	2785280
839	67985852	259210.836290181142	2818048
839	67994365	259210.876424126423	2850816
839	68005454	259210.92811499465	2883584
839	68030485	259210.983211145603	2916352
839	68049348	259211.066974329587	2949120
839	68070365	259211.166026837043	2981888
839	68073530	259211.182375550383	3014656
839	68081725	259211.201922969317	3047424
839	68092659	259211.225981694698	3080192
839	68337597	259212.025457098064	3112960
839	68361967	259212.079013736074	3145728
839	68389752	259212.139164160646	3178496
839	68436560	259212.271103661025	3211264
839	68438743	259212.277004367176	3244032
839	68450507	259212.303279855192	3276800
839	68460228	259212.327237407152	3309568
839	68774250	259213.305330809275	3342336
839	68789063	259213.368207651086	3375104
839	68797619	259213.387023246142	3407872
839	69027741	259214.393045101308	3440640
839	69033891	259214.421307916569	3473408
839	69054312	259214.513044728174	3506176
839	69333762	259215.45446452815	3538944
839	69351577	259215.489376092475	3571712
839	69368796	259215.538812806907	3604480