version 2
run Test-3-20171016-12:15:13-8871
attr configname Test
attr datetime 20171016-12:15:13
attr experiment "\"Simulation Test\""
attr inifile BasicConfig.ini
attr iterationvars ""
attr iterationvars2 $repetition=3
attr measurement "\"Peers: $peers, Rate: $rate\""
attr network BasicTopology
attr processid 8871
attr repetition 3
attr replication #3
attr resultdir results
attr runnumber 3
attr seedset 3

vector 1  BasicTopology  EnterSwarm:vector  ETV
attr ""  ""
attr source  SwarmManager_EnterSwarm
attr title  "Enter Swarm Time, vector"
vector 3  BasicTopology  SwarmEmittedPeerId:vector  ETV
attr ""  ""
attr source  SwarmManager_EmittedPeerId
attr title  "Peer Swarm Signal Emitted, vector"
vector 9  BasicTopology.peer[1].bitTorrentApp.bitTorrentClient  DownloadComplete_Test:vector  ETV
attr source  BitTorrentClient_DownloadComplete_Test
attr title  "Descargas completas (prueba), vector"
vector 0  BasicTopology  DownloadComplete_Test:vector  ETV
attr source  BitTorrentClient_DownloadComplete_Test
attr title  "Tiempo de desacarga (prueba), vector"
vector 11  BasicTopology.peer[2].bitTorrentApp.bitTorrentClient  DownloadComplete_Test:vector  ETV
attr source  BitTorrentClient_DownloadComplete_Test
attr title  "Descargas completas (prueba), vector"
vector 13  BasicTopology.peer[3].bitTorrentApp.bitTorrentClient  DownloadComplete_Test:vector  ETV
attr source  BitTorrentClient_DownloadComplete_Test
attr title  "Descargas completas (prueba), vector"
vector 15  BasicTopology.peer[4].bitTorrentApp.bitTorrentClient  DownloadComplete_Test:vector  ETV
attr source  BitTorrentClient_DownloadComplete_Test
attr title  "Descargas completas (prueba), vector"
vector 17  BasicTopology.peer[5].bitTorrentApp.bitTorrentClient  DownloadComplete_Test:vector  ETV
attr source  BitTorrentClient_DownloadComplete_Test
attr title  "Descargas completas (prueba), vector"
vector 19  BasicTopology.peer[6].bitTorrentApp.bitTorrentClient  DownloadComplete_Test:vector  ETV
attr source  BitTorrentClient_DownloadComplete_Test
attr title  "Descargas completas (prueba), vector"
vector 21  BasicTopology.peer[7].bitTorrentApp.bitTorrentClient  DownloadComplete_Test:vector  ETV
attr source  BitTorrentClient_DownloadComplete_Test
attr title  "Descargas completas (prueba), vector"
vector 23  BasicTopology.peer[8].bitTorrentApp.bitTorrentClient  DownloadComplete_Test:vector  ETV
attr source  BitTorrentClient_DownloadComplete_Test
attr title  "Descargas completas (prueba), vector"
vector 25  BasicTopology.peer[9].bitTorrentApp.bitTorrentClient  DownloadComplete_Test:vector  ETV
attr source  BitTorrentClient_DownloadComplete_Test
attr title  "Descargas completas (prueba), vector"
vector 27  BasicTopology.peer[10].bitTorrentApp.bitTorrentClient  DownloadComplete_Test:vector  ETV
attr source  BitTorrentClient_DownloadComplete_Test
attr title  "Descargas completas (prueba), vector"
vector 29  BasicTopology.peer[11].bitTorrentApp.bitTorrentClient  DownloadComplete_Test:vector  ETV
attr source  BitTorrentClient_DownloadComplete_Test
attr title  "Descargas completas (prueba), vector"
vector 31  BasicTopology.peer[12].bitTorrentApp.bitTorrentClient  DownloadComplete_Test:vector  ETV
attr source  BitTorrentClient_DownloadComplete_Test
attr title  "Descargas completas (prueba), vector"
vector 33  BasicTopology.peer[13].bitTorrentApp.bitTorrentClient  DownloadComplete_Test:vector  ETV
attr source  BitTorrentClient_DownloadComplete_Test
attr title  "Descargas completas (prueba), vector"
vector 35  BasicTopology.peer[14].bitTorrentApp.bitTorrentClient  DownloadComplete_Test:vector  ETV
attr source  BitTorrentClient_DownloadComplete_Test
attr title  "Descargas completas (prueba), vector"
vector 37  BasicTopology.peer[15].bitTorrentApp.bitTorrentClient  DownloadComplete_Test:vector  ETV
attr source  BitTorrentClient_DownloadComplete_Test
attr title  "Descargas completas (prueba), vector"
vector 39  BasicTopology.peer[16].bitTorrentApp.bitTorrentClient  DownloadComplete_Test:vector  ETV
attr source  BitTorrentClient_DownloadComplete_Test
attr title  "Descargas completas (prueba), vector"
vector 41  BasicTopology.peer[17].bitTorrentApp.bitTorrentClient  DownloadComplete_Test:vector  ETV
attr source  BitTorrentClient_DownloadComplete_Test
attr title  "Descargas completas (prueba), vector"
vector 43  BasicTopology.peer[18].bitTorrentApp.bitTorrentClient  DownloadComplete_Test:vector  ETV
attr source  BitTorrentClient_DownloadComplete_Test
attr title  "Descargas completas (prueba), vector"
vector 45  BasicTopology.peer[19].bitTorrentApp.bitTorrentClient  DownloadComplete_Test:vector  ETV
attr source  BitTorrentClient_DownloadComplete_Test
attr title  "Descargas completas (prueba), vector"
vector 47  BasicTopology.peer[20].bitTorrentApp.bitTorrentClient  DownloadComplete_Test:vector  ETV
attr source  BitTorrentClient_DownloadComplete_Test
attr title  "Descargas completas (prueba), vector"
vector 49  BasicTopology.peer[21].bitTorrentApp.bitTorrentClient  DownloadComplete_Test:vector  ETV
attr source  BitTorrentClient_DownloadComplete_Test
attr title  "Descargas completas (prueba), vector"
vector 51  BasicTopology.peer[22].bitTorrentApp.bitTorrentClient  DownloadComplete_Test:vector  ETV
attr source  BitTorrentClient_DownloadComplete_Test
attr title  "Descargas completas (prueba), vector"
vector 53  BasicTopology.peer[23].bitTorrentApp.bitTorrentClient  DownloadComplete_Test:vector  ETV
attr source  BitTorrentClient_DownloadComplete_Test
attr title  "Descargas completas (prueba), vector"
vector 55  BasicTopology.peer[24].bitTorrentApp.bitTorrentClient  DownloadComplete_Test:vector  ETV
attr source  BitTorrentClient_DownloadComplete_Test
attr title  "Descargas completas (prueba), vector"
vector 839  BasicTopology.peer[0].bitTorrentApp.bitTorrentClient.contentManager_29  TotalBytesUploaded:vector  ETV
attr source  ContentManager_TotalBytesUploaded
attr title  "Total of Bytes Uploaded, vector"
attr unit  B
vector 878  BasicTopology.peer[5].bitTorrentApp.bitTorrentClient.contentManager_29  TotalBytesDownloaded:vector  ETV
attr source  ContentManager_TotalBytesDownloaded
attr title  "Total of Bytes Downloaded, vector"
attr unit  B
vector 862  BasicTopology.peer[3].bitTorrentApp.bitTorrentClient.contentManager_29  TotalBytesDownloaded:vector  ETV
attr source  ContentManager_TotalBytesDownloaded
attr title  "Total of Bytes Downloaded, vector"
attr unit  B
vector 894  BasicTopology.peer[7].bitTorrentApp.bitTorrentClient.contentManager_29  TotalBytesDownloaded:vector  ETV
attr source  ContentManager_TotalBytesDownloaded
attr title  "Total of Bytes Downloaded, vector"
attr unit  B
vector 902  BasicTopology.peer[8].bitTorrentApp.bitTorrentClient.contentManager_29  TotalBytesDownloaded:vector  ETV
attr source  ContentManager_TotalBytesDownloaded
attr title  "Total of Bytes Downloaded, vector"
attr unit  B
vector 877  BasicTopology.peer[5].bitTorrentApp.bitTorrentClient.contentManager_29  PiecesDownloaded:vector  ETV
attr source  ContentManager_PieceDownloaded
attr title  "Pieces Downloaded, vector"
vector 879  BasicTopology.peer[5].bitTorrentApp.bitTorrentClient.contentManager_29  TotalBytesUploaded:vector  ETV
attr source  ContentManager_TotalBytesUploaded
attr title  "Total of Bytes Uploaded, vector"
attr unit  B
vector 861  BasicTopology.peer[3].bitTorrentApp.bitTorrentClient.contentManager_29  PiecesDownloaded:vector  ETV
attr source  ContentManager_PieceDownloaded
attr title  "Pieces Downloaded, vector"
vector 863  BasicTopology.peer[3].bitTorrentApp.bitTorrentClient.contentManager_29  TotalBytesUploaded:vector  ETV
attr source  ContentManager_TotalBytesUploaded
attr title  "Total of Bytes Uploaded, vector"
attr unit  B
vector 893  BasicTopology.peer[7].bitTorrentApp.bitTorrentClient.contentManager_29  PiecesDownloaded:vector  ETV
attr source  ContentManager_PieceDownloaded
attr title  "Pieces Downloaded, vector"
vector 895  BasicTopology.peer[7].bitTorrentApp.bitTorrentClient.contentManager_29  TotalBytesUploaded:vector  ETV
attr source  ContentManager_TotalBytesUploaded
attr title  "Total of Bytes Uploaded, vector"
attr unit  B
vector 901  BasicTopology.peer[8].bitTorrentApp.bitTorrentClient.contentManager_29  PiecesDownloaded:vector  ETV
attr source  ContentManager_PieceDownloaded
attr title  "Pieces Downloaded, vector"
vector 903  BasicTopology.peer[8].bitTorrentApp.bitTorrentClient.contentManager_29  TotalBytesUploaded:vector  ETV
attr source  ContentManager_TotalBytesUploaded
attr title  "Total of Bytes Uploaded, vector"
attr unit  B
vector 974  BasicTopology.peer[17].bitTorrentApp.bitTorrentClient.contentManager_29  TotalBytesDownloaded:vector  ETV
attr source  ContentManager_TotalBytesDownloaded
attr title  "Total of Bytes Downloaded, vector"
attr unit  B
vector 886  BasicTopology.peer[6].bitTorrentApp.bitTorrentClient.contentManager_29  TotalBytesDownloaded:vector  ETV
attr source  ContentManager_TotalBytesDownloaded
attr title  "Total of Bytes Downloaded, vector"
attr unit  B
vector 1022  BasicTopology.peer[23].bitTorrentApp.bitTorrentClient.contentManager_29  TotalBytesDownloaded:vector  ETV
attr source  ContentManager_TotalBytesDownloaded
attr title  "Total of Bytes Downloaded, vector"
attr unit  B
vector 885  BasicTopology.peer[6].bitTorrentApp.bitTorrentClient.contentManager_29  PiecesDownloaded:vector  ETV
attr source  ContentManager_PieceDownloaded
attr title  "Pieces Downloaded, vector"
vector 973  BasicTopology.peer[17].bitTorrentApp.bitTorrentClient.contentManager_29  PiecesDownloaded:vector  ETV
attr source  ContentManager_PieceDownloaded
attr title  "Pieces Downloaded, vector"
vector 975  BasicTopology.peer[17].bitTorrentApp.bitTorrentClient.contentManager_29  TotalBytesUploaded:vector  ETV
attr source  ContentManager_TotalBytesUploaded
attr title  "Total of Bytes Uploaded, vector"
attr unit  B
vector 1021  BasicTopology.peer[23].bitTorrentApp.bitTorrentClient.contentManager_29  PiecesDownloaded:vector  ETV
attr source  ContentManager_PieceDownloaded
attr title  "Pieces Downloaded, vector"
vector 887  BasicTopology.peer[6].bitTorrentApp.bitTorrentClient.contentManager_29  TotalBytesUploaded:vector  ETV
attr source  ContentManager_TotalBytesUploaded
attr title  "Total of Bytes Uploaded, vector"
attr unit  B
vector 1023  BasicTopology.peer[23].bitTorrentApp.bitTorrentClient.contentManager_29  TotalBytesUploaded:vector  ETV
attr source  ContentManager_TotalBytesUploaded
attr title  "Total of Bytes Uploaded, vector"
attr unit  B
vector 5  BasicTopology  DownloadEmittedPeerId:vector  ETV
attr source  ContentManager_EmittedPeerId
attr title  "Peer Download Signal Emitted, vector"
vector 4  BasicTopology  DownloadComplete:vector  ETV
attr source  ContentManager_100_percentDownloadTime
attr title  "Download Complete, vector"
attr unit  s
vector 950  BasicTopology.peer[14].bitTorrentApp.bitTorrentClient.contentManager_29  TotalBytesDownloaded:vector  ETV
attr source  ContentManager_TotalBytesDownloaded
attr title  "Total of Bytes Downloaded, vector"
attr unit  B
vector 949  BasicTopology.peer[14].bitTorrentApp.bitTorrentClient.contentManager_29  PiecesDownloaded:vector  ETV
attr source  ContentManager_PieceDownloaded
attr title  "Pieces Downloaded, vector"
vector 918  BasicTopology.peer[10].bitTorrentApp.bitTorrentClient.contentManager_29  TotalBytesDownloaded:vector  ETV
attr source  ContentManager_TotalBytesDownloaded
attr title  "Total of Bytes Downloaded, vector"
attr unit  B
vector 958  BasicTopology.peer[15].bitTorrentApp.bitTorrentClient.contentManager_29  TotalBytesDownloaded:vector  ETV
attr source  ContentManager_TotalBytesDownloaded
attr title  "Total of Bytes Downloaded, vector"
attr unit  B
vector 957  BasicTopology.peer[15].bitTorrentApp.bitTorrentClient.contentManager_29  PiecesDownloaded:vector  ETV
attr source  ContentManager_PieceDownloaded
attr title  "Pieces Downloaded, vector"
vector 959  BasicTopology.peer[15].bitTorrentApp.bitTorrentClient.contentManager_29  TotalBytesUploaded:vector  ETV
attr source  ContentManager_TotalBytesUploaded
attr title  "Total of Bytes Uploaded, vector"
attr unit  B
vector 1030  BasicTopology.peer[24].bitTorrentApp.bitTorrentClient.contentManager_29  TotalBytesDownloaded:vector  ETV
attr source  ContentManager_TotalBytesDownloaded
attr title  "Total of Bytes Downloaded, vector"
attr unit  B
vector 917  BasicTopology.peer[10].bitTorrentApp.bitTorrentClient.contentManager_29  PiecesDownloaded:vector  ETV
attr source  ContentManager_PieceDownloaded
attr title  "Pieces Downloaded, vector"
vector 919  BasicTopology.peer[10].bitTorrentApp.bitTorrentClient.contentManager_29  TotalBytesUploaded:vector  ETV
attr source  ContentManager_TotalBytesUploaded
attr title  "Total of Bytes Uploaded, vector"
attr unit  B
vector 1014  BasicTopology.peer[22].bitTorrentApp.bitTorrentClient.contentManager_29  TotalBytesDownloaded:vector  ETV
attr source  ContentManager_TotalBytesDownloaded
attr title  "Total of Bytes Downloaded, vector"
attr unit  B
vector 1013  BasicTopology.peer[22].bitTorrentApp.bitTorrentClient.contentManager_29  PiecesDownloaded:vector  ETV
attr source  ContentManager_PieceDownloaded
attr title  "Pieces Downloaded, vector"
vector 1029  BasicTopology.peer[24].bitTorrentApp.bitTorrentClient.contentManager_29  PiecesDownloaded:vector  ETV
attr source  ContentManager_PieceDownloaded
attr title  "Pieces Downloaded, vector"
vector 1031  BasicTopology.peer[24].bitTorrentApp.bitTorrentClient.contentManager_29  TotalBytesUploaded:vector  ETV
attr source  ContentManager_TotalBytesUploaded
attr title  "Total of Bytes Uploaded, vector"
attr unit  B
vector 990  BasicTopology.peer[19].bitTorrentApp.bitTorrentClient.contentManager_29  TotalBytesDownloaded:vector  ETV
attr source  ContentManager_TotalBytesDownloaded
attr title  "Total of Bytes Downloaded, vector"
attr unit  B
vector 1015  BasicTopology.peer[22].bitTorrentApp.bitTorrentClient.contentManager_29  TotalBytesUploaded:vector  ETV
attr source  ContentManager_TotalBytesUploaded
attr title  "Total of Bytes Uploaded, vector"
attr unit  B
vector 926  BasicTopology.peer[11].bitTorrentApp.bitTorrentClient.contentManager_29  TotalBytesDownloaded:vector  ETV
attr source  ContentManager_TotalBytesDownloaded
attr title  "Total of Bytes Downloaded, vector"
attr unit  B
vector 925  BasicTopology.peer[11].bitTorrentApp.bitTorrentClient.contentManager_29  PiecesDownloaded:vector  ETV
attr source  ContentManager_PieceDownloaded
attr title  "Pieces Downloaded, vector"
vector 942  BasicTopology.peer[13].bitTorrentApp.bitTorrentClient.contentManager_29  TotalBytesDownloaded:vector  ETV
attr source  ContentManager_TotalBytesDownloaded
attr title  "Total of Bytes Downloaded, vector"
attr unit  B
vector 989  BasicTopology.peer[19].bitTorrentApp.bitTorrentClient.contentManager_29  PiecesDownloaded:vector  ETV
attr source  ContentManager_PieceDownloaded
attr title  "Pieces Downloaded, vector"
vector 991  BasicTopology.peer[19].bitTorrentApp.bitTorrentClient.contentManager_29  TotalBytesUploaded:vector  ETV
attr source  ContentManager_TotalBytesUploaded
attr title  "Total of Bytes Uploaded, vector"
attr unit  B
vector 927  BasicTopology.peer[11].bitTorrentApp.bitTorrentClient.contentManager_29  TotalBytesUploaded:vector  ETV
attr source  ContentManager_TotalBytesUploaded
attr title  "Total of Bytes Uploaded, vector"
attr unit  B
vector 941  BasicTopology.peer[13].bitTorrentApp.bitTorrentClient.contentManager_29  PiecesDownloaded:vector  ETV
attr source  ContentManager_PieceDownloaded
attr title  "Pieces Downloaded, vector"
vector 943  BasicTopology.peer[13].bitTorrentApp.bitTorrentClient.contentManager_29  TotalBytesUploaded:vector  ETV
attr source  ContentManager_TotalBytesUploaded
attr title  "Total of Bytes Uploaded, vector"
attr unit  B
vector 854  BasicTopology.peer[2].bitTorrentApp.bitTorrentClient.contentManager_29  TotalBytesDownloaded:vector  ETV
attr source  ContentManager_TotalBytesDownloaded
attr title  "Total of Bytes Downloaded, vector"
attr unit  B
vector 853  BasicTopology.peer[2].bitTorrentApp.bitTorrentClient.contentManager_29  PiecesDownloaded:vector  ETV
attr source  ContentManager_PieceDownloaded
attr title  "Pieces Downloaded, vector"
vector 855  BasicTopology.peer[2].bitTorrentApp.bitTorrentClient.contentManager_29  TotalBytesUploaded:vector  ETV
attr source  ContentManager_TotalBytesUploaded
attr title  "Total of Bytes Uploaded, vector"
attr unit  B
vector 966  BasicTopology.peer[16].bitTorrentApp.bitTorrentClient.contentManager_29  TotalBytesDownloaded:vector  ETV
attr source  ContentManager_TotalBytesDownloaded
attr title  "Total of Bytes Downloaded, vector"
attr unit  B
vector 870  BasicTopology.peer[4].bitTorrentApp.bitTorrentClient.contentManager_29  TotalBytesDownloaded:vector  ETV
attr source  ContentManager_TotalBytesDownloaded
attr title  "Total of Bytes Downloaded, vector"
attr unit  B
vector 869  BasicTopology.peer[4].bitTorrentApp.bitTorrentClient.contentManager_29  PiecesDownloaded:vector  ETV
attr source  ContentManager_PieceDownloaded
attr title  "Pieces Downloaded, vector"
vector 965  BasicTopology.peer[16].bitTorrentApp.bitTorrentClient.contentManager_29  PiecesDownloaded:vector  ETV
attr source  ContentManager_PieceDownloaded
attr title  "Pieces Downloaded, vector"
vector 982  BasicTopology.peer[18].bitTorrentApp.bitTorrentClient.contentManager_29  TotalBytesDownloaded:vector  ETV
attr source  ContentManager_TotalBytesDownloaded
attr title  "Total of Bytes Downloaded, vector"
attr unit  B
vector 981  BasicTopology.peer[18].bitTorrentApp.bitTorrentClient.contentManager_29  PiecesDownloaded:vector  ETV
attr source  ContentManager_PieceDownloaded
attr title  "Pieces Downloaded, vector"
vector 998  BasicTopology.peer[20].bitTorrentApp.bitTorrentClient.contentManager_29  TotalBytesDownloaded:vector  ETV
attr source  ContentManager_TotalBytesDownloaded
attr title  "Total of Bytes Downloaded, vector"
attr unit  B
vector 997  BasicTopology.peer[20].bitTorrentApp.bitTorrentClient.contentManager_29  PiecesDownloaded:vector  ETV
attr source  ContentManager_PieceDownloaded
attr title  "Pieces Downloaded, vector"
vector 951  BasicTopology.peer[14].bitTorrentApp.bitTorrentClient.contentManager_29  TotalBytesUploaded:vector  ETV
attr source  ContentManager_TotalBytesUploaded
attr title  "Total of Bytes Uploaded, vector"
attr unit  B
vector 999  BasicTopology.peer[20].bitTorrentApp.bitTorrentClient.contentManager_29  TotalBytesUploaded:vector  ETV
attr source  ContentManager_TotalBytesUploaded
attr title  "Total of Bytes Uploaded, vector"
attr unit  B
vector 846  BasicTopology.peer[1].bitTorrentApp.bitTorrentClient.contentManager_29  TotalBytesDownloaded:vector  ETV
attr source  ContentManager_TotalBytesDownloaded
attr title  "Total of Bytes Downloaded, vector"
attr unit  B
vector 845  BasicTopology.peer[1].bitTorrentApp.bitTorrentClient.contentManager_29  PiecesDownloaded:vector  ETV
attr source  ContentManager_PieceDownloaded
attr title  "Pieces Downloaded, vector"
vector 910  BasicTopology.peer[9].bitTorrentApp.bitTorrentClient.contentManager_29  TotalBytesDownloaded:vector  ETV
attr source  ContentManager_TotalBytesDownloaded
attr title  "Total of Bytes Downloaded, vector"
attr unit  B
vector 909  BasicTopology.peer[9].bitTorrentApp.bitTorrentClient.contentManager_29  PiecesDownloaded:vector  ETV
attr source  ContentManager_PieceDownloaded
attr title  "Pieces Downloaded, vector"
vector 967  BasicTopology.peer[16].bitTorrentApp.bitTorrentClient.contentManager_29  TotalBytesUploaded:vector  ETV
attr source  ContentManager_TotalBytesUploaded
attr title  "Total of Bytes Uploaded, vector"
attr unit  B
vector 871  BasicTopology.peer[4].bitTorrentApp.bitTorrentClient.contentManager_29  TotalBytesUploaded:vector  ETV
attr source  ContentManager_TotalBytesUploaded
attr title  "Total of Bytes Uploaded, vector"
attr unit  B
vector 983  BasicTopology.peer[18].bitTorrentApp.bitTorrentClient.contentManager_29  TotalBytesUploaded:vector  ETV
attr source  ContentManager_TotalBytesUploaded
attr title  "Total of Bytes Uploaded, vector"
attr unit  B
vector 1006  BasicTopology.peer[21].bitTorrentApp.bitTorrentClient.contentManager_29  TotalBytesDownloaded:vector  ETV
attr source  ContentManager_TotalBytesDownloaded
attr title  "Total of Bytes Downloaded, vector"
attr unit  B
vector 1005  BasicTopology.peer[21].bitTorrentApp.bitTorrentClient.contentManager_29  PiecesDownloaded:vector  ETV
attr source  ContentManager_PieceDownloaded
attr title  "Pieces Downloaded, vector"
vector 934  BasicTopology.peer[12].bitTorrentApp.bitTorrentClient.contentManager_29  TotalBytesDownloaded:vector  ETV
attr source  ContentManager_TotalBytesDownloaded
attr title  "Total of Bytes Downloaded, vector"
attr unit  B
vector 933  BasicTopology.peer[12].bitTorrentApp.bitTorrentClient.contentManager_29  PiecesDownloaded:vector  ETV
attr source  ContentManager_PieceDownloaded
attr title  "Pieces Downloaded, vector"
0	64858295	259201	259201
0	64858296	259201	259201
0	64858297	259201	259201
0	64858298	259201	259201
0	64858299	259201	259201
0	64858300	259201	259201
0	64858301	259201	259201
0	64858302	259201	259201
0	64858303	259201	259201
0	64858304	259201	259201
0	64858305	259201	259201
0	64858306	259201	259201
0	64858307	259201	259201
0	64858308	259201	259201
0	64858309	259201	259201
0	64858310	259201	259201
0	64858311	259201	259201
0	64858312	259201	259201
0	64858313	259201	259201
0	64858314	259201	259201
0	64858315	259201	259201
0	64858316	259201	259201
0	64858317	259201	259201
0	64858318	259201	259201
0	85133882	259312.142388322498	259312.14238832
0	87080947	259328.721496888691	259328.72149689
0	87178147	259330.06370540012	259330.0637054
0	87190478	259330.967304426867	259330.96730443
0	102213830	259891.867867011939	259891.86786701
0	107800248	259933.343909570769	259933.34390957
0	108032895	259988.72943423331	259988.72943423
0	108134531	259991.11535758812	259991.11535759
0	108146082	259991.864324578896	259991.86432458
0	108354592	260040.480395101482	260040.4803951
0	108414044	260041.746289858243	260041.74628986
0	108579093	260045.707233371618	260045.70723337
0	110746861	260183.573737415701	260183.57373742
0	110812330	260192.704858302584	260192.7048583
0	117932557	260718.085393976448	260718.08539398
0	118006258	260720.63032981936	260720.63032982
0	134923656	261592.023997659969	261592.02399766
0	137095355	261607.187087228783	261607.18708723
0	138339133	261622.899807429083	261622.89980743
0	138495588	261624.351419338598	261624.35141934
0	138597541	261625.44799352988	261625.44799353
0	139402597	261717.907902850054	261717.90790285
0	148452311	262727.787004504692	262727.7870045
0	156952790	263495.28250649984	263495.2825065
1	64857988	259200	259200
1	64858295	259201	259201
1	64858296	259201	259201
1	64858297	259201	259201
1	64858298	259201	259201
1	64858299	259201	259201
1	64858300	259201	259201
1	64858301	259201	259201
1	64858302	259201	259201
1	64858303	259201	259201
1	64858304	259201	259201
1	64858305	259201	259201
1	64858306	259201	259201
1	64858307	259201	259201
1	64858308	259201	259201
1	64858309	259201	259201
1	64858310	259201	259201
1	64858311	259201	259201
1	64858312	259201	259201
1	64858313	259201	259201
1	64858314	259201	259201
1	64858315	259201	259201
1	64858316	259201	259201
1	64858317	259201	259201
1	64858318	259201	259201
3	64857988	259200	6
3	64858295	259201	7
3	64858296	259201	8
3	64858297	259201	9
3	64858298	259201	10
3	64858299	259201	11
3	64858300	259201	12
3	64858301	259201	13
3	64858302	259201	14
3	64858303	259201	15
3	64858304	259201	16
3	64858305	259201	17
3	64858306	259201	18
3	64858307	259201	19
3	64858308	259201	20
3	64858309	259201	21
3	64858310	259201	22
3	64858311	259201	23
3	64858312	259201	24
3	64858313	259201	25
3	64858314	259201	26
3	64858315	259201	27
3	64858316	259201	28
3	64858317	259201	29
3	64858318	259201	30
4	85133882	259312.142388322498	107.39768541486
4	87080947	259328.721496888691	120.12421186832
4	87178147	259330.06370540012	121.87237438709
4	87190478	259330.967304426867	121.45315956643
4	102213830	259891.867867011939	88.449485567472
4	107800248	259933.343909570769	126.74570350833
4	108032895	259988.72943423331	162.80372301026
4	108134531	259991.11535758812	785.96614762468
4	108146082	259991.864324578896	787.4437556855
4	108354592	260040.480395101482	215.40233995958
4	108414044	260041.746289858243	836.47703471567
4	108579093	260045.707233371618	219.29741200412
4	110746861	260183.573737415701	517.96416413455
4	110812330	260192.704858302584	389.5843763971
4	117932557	260718.085393976448	311.70630666785
4	118006258	260720.63032981936	916.6583731587
4	134923656	261592.023997659969	171.94500295362
4	137095355	261607.187087228783	184.038367789
4	138339133	261622.899807429083	1245.3513284706
4	138495588	261624.351419338598	1248.0460503459
4	138597541	261625.44799352988	1244.978403408
4	139402597	261717.907902850054	1342.8371886964
4	148452311	262727.787004504692	74.646194862388
4	156952790	263495.28250649984	61.210301603898
5	70515228	259233.019234812142	13
5	70561631	259233.403249504273	23
5	70734921	259234.129334764404	29
5	70880561	259234.729410367245	9
5	70901527	259234.979528096546	14
5	71418496	259237.442200164755	11
5	72151741	259240.932123228743	12
5	74282742	259253.095486655557	9
5	75079772	259258.813294697571	13
5	75212181	259259.280663325146	11
5	77571976	259272.136264176781	14
5	77915826	259273.799336092097	9
5	78136153	259275.04455444931	29
5	78272181	259275.706122818915	23
5	78430360	259276.511988932097	12
5	79122807	259280.142248835826	13
5	80178113	259285.857488138927	11
5	81797394	259293.865328829181	14
5	83945907	259305.032288228807	23
5	84792246	259309.562518374264	12
5	84830012	259309.81281122534	29
5	85133882	259312.142388322498	9
5	87080947	259328.721496888691	23
5	87178147	259330.06370540012	12
5	87190478	259330.967304426867	29
5	89962029	259822.159429079053	16
5	93039486	259837.642320519095	30
5	93389120	259839.739893741268	28
5	93759441	259842.502123882003	17
5	93787359	259842.635042438657	19
5	94327570	259846.288253940737	25
5	94537082	259847.807260834908	16
5	96231460	259857.084648428222	21
5	96945281	259861.459251878853	25
5	97284112	259864.332358999919	19
5	97518934	259865.722285364304	17
5	97539998	259865.822107585077	16
5	99940984	259879.391495199036	28
5	100612545	259882.588671800805	19
5	100729839	259883.09032798378	30
5	101093736	259886.060152016228	21
5	101104745	259886.1070107096	17
5	102098489	259891.121588975913	25
5	102213830	259891.867867011939	16
5	105141159	259908.212600599246	30
5	105411969	259911.110657835023	28
5	105823492	259914.920162391171	21
5	107800248	259933.343909570769	30
5	108032895	259988.72943423331	25
5	108134531	259991.11535758812	13
5	108146082	259991.864324578896	11
5	108354592	260040.480395101482	17
5	108414044	260041.746289858243	14
5	108579093	260045.707233371618	19
5	109327836	260115.849087410462	20
5	109877185	260135.741123188933	20
5	110309676	260162.661529708724	20
5	110746861	260183.573737415701	20
5	110812330	260192.704858302584	21
5	114138519	260424.114123643011	26
5	114671672	260433.965029606933	8
5	114945482	260437.421496787952	24
5	115001985	260439.340278421102	10
5	115061324	260439.544211827943	22
5	115344721	260444.024125513277	26
5	117358157	260705.569416478968	26
5	117932557	260718.085393976448	26
5	118006258	260720.63032981936	28
5	119741148	261440.078838342022	7
5	120301538	261450.377542487311	15
5	123770332	261465.698120732617	7
5	124680644	261470.499286526632	22
5	125336347	261473.182703217052	24
5	125506892	261474.42050912648	15
5	125689259	261475.368898528664	10
5	126258604	261477.746732717738	8
5	130071392	261495.374722688606	7
5	132426059	261505.602557860002	15
5	133343206	261573.045751880359	10
5	133531260	261574.460071726782	22
5	133972555	261580.548819420434	24
5	134923656	261592.023997659969	7
5	137095355	261607.187087228783	15
5	138339133	261622.899807429083	22
5	138495588	261624.351419338598	10
5	138597541	261625.44799352988	24
5	138694230	261707.242614322911	8
5	139402597	261717.907902850054	8
5	141969962	262669.283367632903	27
5	144161171	262688.11817311202	27
5	146309638	262706.97027779994	27
5	148452311	262727.787004504692	27
5	150784143	263452.414551640357	18
5	152872594	263468.764405959305	18
5	154911642	263481.118322665864	18
5	156952790	263495.28250649984	18
9	64858295	259201	259201
9	134923656	261592.023997659969	261592.02399766
11	64858296	259201	259201
11	139402597	261717.907902850054	261717.90790285
13	64858297	259201	259201
13	85133882	259312.142388322498	259312.14238832
15	64858298	259201	259201
15	138495588	261624.351419338598	261624.35141934
17	64858299	259201	259201
17	108146082	259991.864324578896	259991.86432458
19	64858300	259201	259201
19	87178147	259330.06370540012	259330.0637054
21	64858301	259201	259201
21	108134531	259991.11535758812	259991.11535759
23	64858302	259201	259201
23	108414044	260041.746289858243	260041.74628986
25	64858303	259201	259201
25	137095355	261607.187087228783	261607.18708723
27	64858304	259201	259201
27	102213830	259891.867867011939	259891.86786701
29	64858305	259201	259201
29	108354592	260040.480395101482	260040.4803951
31	64858306	259201	259201
31	156952790	263495.28250649984	263495.2825065
33	64858307	259201	259201
33	108579093	260045.707233371618	260045.70723337
35	64858308	259201	259201
35	110746861	260183.573737415701	260183.57373742
37	64858309	259201	259201
37	110812330	260192.704858302584	260192.7048583
39	64858310	259201	259201
39	138339133	261622.899807429083	261622.89980743
41	64858311	259201	259201
41	87080947	259328.721496888691	259328.72149689
43	64858312	259201	259201
43	138597541	261625.44799352988	261625.44799353
45	64858313	259201	259201
45	108032895	259988.72943423331	259988.72943423
47	64858314	259201	259201
47	117932557	260718.085393976448	260718.08539398
49	64858315	259201	259201
49	148452311	262727.787004504692	262727.7870045
51	64858316	259201	259201
51	118006258	260720.63032981936	260720.63032982
53	64858317	259201	259201
53	87190478	259330.967304426867	259330.96730443
55	64858318	259201	259201