version 2
run Test-12-20171016-12:16:18-8925
attr configname Test
attr datetime 20171016-12:16:18
attr experiment "\"Simulation Test\""
attr inifile BasicConfig.ini
attr iterationvars ""
attr iterationvars2 $repetition=12
attr measurement "\"Peers: $peers, Rate: $rate\""
attr network BasicTopology
attr processid 8925
attr repetition 12
attr replication #12
attr resultdir results
attr runnumber 12
attr seedset 12

vector 1  BasicTopology  EnterSwarm:vector  ETV
attr ""  ""
attr source  SwarmManager_EnterSwarm
attr title  "Enter Swarm Time, vector"
vector 3  BasicTopology  SwarmEmittedPeerId:vector  ETV
attr ""  ""
attr source  SwarmManager_EmittedPeerId
attr title  "Peer Swarm Signal Emitted, vector"
vector 27  BasicTopology.peer[10].bitTorrentApp.bitTorrentClient  DownloadComplete_Test:vector  ETV
attr source  BitTorrentClient_DownloadComplete_Test
attr title  "Descargas completas (prueba), vector"
vector 0  BasicTopology  DownloadComplete_Test:vector  ETV
attr source  BitTorrentClient_DownloadComplete_Test
attr title  "Tiempo de desacarga (prueba), vector"
vector 29  BasicTopology.peer[11].bitTorrentApp.bitTorrentClient  DownloadComplete_Test:vector  ETV
attr source  BitTorrentClient_DownloadComplete_Test
attr title  "Descargas completas (prueba), vector"
vector 31  BasicTopology.peer[12].bitTorrentApp.bitTorrentClient  DownloadComplete_Test:vector  ETV
attr source  BitTorrentClient_DownloadComplete_Test
attr title  "Descargas completas (prueba), vector"
vector 33  BasicTopology.peer[13].bitTorrentApp.bitTorrentClient  DownloadComplete_Test:vector  ETV
attr source  BitTorrentClient_DownloadComplete_Test
attr title  "Descargas completas (prueba), vector"
vector 35  BasicTopology.peer[14].bitTorrentApp.bitTorrentClient  DownloadComplete_Test:vector  ETV
attr source  BitTorrentClient_DownloadComplete_Test
attr title  "Descargas completas (prueba), vector"
vector 37  BasicTopology.peer[15].bitTorrentApp.bitTorrentClient  DownloadComplete_Test:vector  ETV
attr source  BitTorrentClient_DownloadComplete_Test
attr title  "Descargas completas (prueba), vector"
vector 39  BasicTopology.peer[16].bitTorrentApp.bitTorrentClient  DownloadComplete_Test:vector  ETV
attr source  BitTorrentClient_DownloadComplete_Test
attr title  "Descargas completas (prueba), vector"
vector 41  BasicTopology.peer[17].bitTorrentApp.bitTorrentClient  DownloadComplete_Test:vector  ETV
attr source  BitTorrentClient_DownloadComplete_Test
attr title  "Descargas completas (prueba), vector"
vector 43  BasicTopology.peer[18].bitTorrentApp.bitTorrentClient  DownloadComplete_Test:vector  ETV
attr source  BitTorrentClient_DownloadComplete_Test
attr title  "Descargas completas (prueba), vector"
vector 45  BasicTopology.peer[19].bitTorrentApp.bitTorrentClient  DownloadComplete_Test:vector  ETV
attr source  BitTorrentClient_DownloadComplete_Test
attr title  "Descargas completas (prueba), vector"
vector 47  BasicTopology.peer[20].bitTorrentApp.bitTorrentClient  DownloadComplete_Test:vector  ETV
attr source  BitTorrentClient_DownloadComplete_Test
attr title  "Descargas completas (prueba), vector"
vector 49  BasicTopology.peer[21].bitTorrentApp.bitTorrentClient  DownloadComplete_Test:vector  ETV
attr source  BitTorrentClient_DownloadComplete_Test
attr title  "Descargas completas (prueba), vector"
vector 51  BasicTopology.peer[22].bitTorrentApp.bitTorrentClient  DownloadComplete_Test:vector  ETV
attr source  BitTorrentClient_DownloadComplete_Test
attr title  "Descargas completas (prueba), vector"
vector 53  BasicTopology.peer[23].bitTorrentApp.bitTorrentClient  DownloadComplete_Test:vector  ETV
attr source  BitTorrentClient_DownloadComplete_Test
attr title  "Descargas completas (prueba), vector"
vector 55  BasicTopology.peer[24].bitTorrentApp.bitTorrentClient  DownloadComplete_Test:vector  ETV
attr source  BitTorrentClient_DownloadComplete_Test
attr title  "Descargas completas (prueba), vector"
vector 887  BasicTopology.peer[6].bitTorrentApp.bitTorrentClient.contentManager_29  TotalBytesUploaded:vector  ETV
attr source  ContentManager_TotalBytesUploaded
attr title  "Total of Bytes Uploaded, vector"
attr unit  B
vector 871  BasicTopology.peer[4].bitTorrentApp.bitTorrentClient.contentManager_29  TotalBytesUploaded:vector  ETV
attr source  ContentManager_TotalBytesUploaded
attr title  "Total of Bytes Uploaded, vector"
attr unit  B
vector 903  BasicTopology.peer[8].bitTorrentApp.bitTorrentClient.contentManager_29  TotalBytesUploaded:vector  ETV
attr source  ContentManager_TotalBytesUploaded
attr title  "Total of Bytes Uploaded, vector"
attr unit  B
vector 895  BasicTopology.peer[7].bitTorrentApp.bitTorrentClient.contentManager_29  TotalBytesUploaded:vector  ETV
attr source  ContentManager_TotalBytesUploaded
attr title  "Total of Bytes Uploaded, vector"
attr unit  B
vector 839  BasicTopology.peer[0].bitTorrentApp.bitTorrentClient.contentManager_29  TotalBytesUploaded:vector  ETV
attr source  ContentManager_TotalBytesUploaded
attr title  "Total of Bytes Uploaded, vector"
attr unit  B
vector 847  BasicTopology.peer[1].bitTorrentApp.bitTorrentClient.contentManager_29  TotalBytesUploaded:vector  ETV
attr source  ContentManager_TotalBytesUploaded
attr title  "Total of Bytes Uploaded, vector"
attr unit  B
vector 855  BasicTopology.peer[2].bitTorrentApp.bitTorrentClient.contentManager_29  TotalBytesUploaded:vector  ETV
attr source  ContentManager_TotalBytesUploaded
attr title  "Total of Bytes Uploaded, vector"
attr unit  B
vector 879  BasicTopology.peer[5].bitTorrentApp.bitTorrentClient.contentManager_29  TotalBytesUploaded:vector  ETV
attr source  ContentManager_TotalBytesUploaded
attr title  "Total of Bytes Uploaded, vector"
attr unit  B
vector 918  BasicTopology.peer[10].bitTorrentApp.bitTorrentClient.contentManager_29  TotalBytesDownloaded:vector  ETV
attr source  ContentManager_TotalBytesDownloaded
attr title  "Total of Bytes Downloaded, vector"
attr unit  B
vector 917  BasicTopology.peer[10].bitTorrentApp.bitTorrentClient.contentManager_29  PiecesDownloaded:vector  ETV
attr source  ContentManager_PieceDownloaded
attr title  "Pieces Downloaded, vector"
vector 919  BasicTopology.peer[10].bitTorrentApp.bitTorrentClient.contentManager_29  TotalBytesUploaded:vector  ETV
attr source  ContentManager_TotalBytesUploaded
attr title  "Total of Bytes Uploaded, vector"
attr unit  B
vector 974  BasicTopology.peer[17].bitTorrentApp.bitTorrentClient.contentManager_29  TotalBytesDownloaded:vector  ETV
attr source  ContentManager_TotalBytesDownloaded
attr title  "Total of Bytes Downloaded, vector"
attr unit  B
vector 950  BasicTopology.peer[14].bitTorrentApp.bitTorrentClient.contentManager_29  TotalBytesDownloaded:vector  ETV
attr source  ContentManager_TotalBytesDownloaded
attr title  "Total of Bytes Downloaded, vector"
attr unit  B
vector 1022  BasicTopology.peer[23].bitTorrentApp.bitTorrentClient.contentManager_29  TotalBytesDownloaded:vector  ETV
attr source  ContentManager_TotalBytesDownloaded
attr title  "Total of Bytes Downloaded, vector"
attr unit  B
vector 966  BasicTopology.peer[16].bitTorrentApp.bitTorrentClient.contentManager_29  TotalBytesDownloaded:vector  ETV
attr source  ContentManager_TotalBytesDownloaded
attr title  "Total of Bytes Downloaded, vector"
attr unit  B
vector 934  BasicTopology.peer[12].bitTorrentApp.bitTorrentClient.contentManager_29  TotalBytesDownloaded:vector  ETV
attr source  ContentManager_TotalBytesDownloaded
attr title  "Total of Bytes Downloaded, vector"
attr unit  B
vector 990  BasicTopology.peer[19].bitTorrentApp.bitTorrentClient.contentManager_29  TotalBytesDownloaded:vector  ETV
attr source  ContentManager_TotalBytesDownloaded
attr title  "Total of Bytes Downloaded, vector"
attr unit  B
vector 973  BasicTopology.peer[17].bitTorrentApp.bitTorrentClient.contentManager_29  PiecesDownloaded:vector  ETV
attr source  ContentManager_PieceDownloaded
attr title  "Pieces Downloaded, vector"
vector 863  BasicTopology.peer[3].bitTorrentApp.bitTorrentClient.contentManager_29  TotalBytesUploaded:vector  ETV
attr source  ContentManager_TotalBytesUploaded
attr title  "Total of Bytes Uploaded, vector"
attr unit  B
vector 975  BasicTopology.peer[17].bitTorrentApp.bitTorrentClient.contentManager_29  TotalBytesUploaded:vector  ETV
attr source  ContentManager_TotalBytesUploaded
attr title  "Total of Bytes Uploaded, vector"
attr unit  B
vector 989  BasicTopology.peer[19].bitTorrentApp.bitTorrentClient.contentManager_29  PiecesDownloaded:vector  ETV
attr source  ContentManager_PieceDownloaded
attr title  "Pieces Downloaded, vector"
vector 991  BasicTopology.peer[19].bitTorrentApp.bitTorrentClient.contentManager_29  TotalBytesUploaded:vector  ETV
attr source  ContentManager_TotalBytesUploaded
attr title  "Total of Bytes Uploaded, vector"
attr unit  B
vector 1006  BasicTopology.peer[21].bitTorrentApp.bitTorrentClient.contentManager_29  TotalBytesDownloaded:vector  ETV
attr source  ContentManager_TotalBytesDownloaded
attr title  "Total of Bytes Downloaded, vector"
attr unit  B
vector 949  BasicTopology.peer[14].bitTorrentApp.bitTorrentClient.contentManager_29  PiecesDownloaded:vector  ETV
attr source  ContentManager_PieceDownloaded
attr title  "Pieces Downloaded, vector"
vector 1014  BasicTopology.peer[22].bitTorrentApp.bitTorrentClient.contentManager_29  TotalBytesDownloaded:vector  ETV
attr source  ContentManager_TotalBytesDownloaded
attr title  "Total of Bytes Downloaded, vector"
attr unit  B
vector 951  BasicTopology.peer[14].bitTorrentApp.bitTorrentClient.contentManager_29  TotalBytesUploaded:vector  ETV
attr source  ContentManager_TotalBytesUploaded
attr title  "Total of Bytes Uploaded, vector"
attr unit  B
vector 965  BasicTopology.peer[16].bitTorrentApp.bitTorrentClient.contentManager_29  PiecesDownloaded:vector  ETV
attr source  ContentManager_PieceDownloaded
attr title  "Pieces Downloaded, vector"
vector 1021  BasicTopology.peer[23].bitTorrentApp.bitTorrentClient.contentManager_29  PiecesDownloaded:vector  ETV
attr source  ContentManager_PieceDownloaded
attr title  "Pieces Downloaded, vector"
vector 1030  BasicTopology.peer[24].bitTorrentApp.bitTorrentClient.contentManager_29  TotalBytesDownloaded:vector  ETV
attr source  ContentManager_TotalBytesDownloaded
attr title  "Total of Bytes Downloaded, vector"
attr unit  B
vector 1023  BasicTopology.peer[23].bitTorrentApp.bitTorrentClient.contentManager_29  TotalBytesUploaded:vector  ETV
attr source  ContentManager_TotalBytesUploaded
attr title  "Total of Bytes Uploaded, vector"
attr unit  B
vector 942  BasicTopology.peer[13].bitTorrentApp.bitTorrentClient.contentManager_29  TotalBytesDownloaded:vector  ETV
attr source  ContentManager_TotalBytesDownloaded
attr title  "Total of Bytes Downloaded, vector"
attr unit  B
vector 933  BasicTopology.peer[12].bitTorrentApp.bitTorrentClient.contentManager_29  PiecesDownloaded:vector  ETV
attr source  ContentManager_PieceDownloaded
attr title  "Pieces Downloaded, vector"
vector 1029  BasicTopology.peer[24].bitTorrentApp.bitTorrentClient.contentManager_29  PiecesDownloaded:vector  ETV
attr source  ContentManager_PieceDownloaded
attr title  "Pieces Downloaded, vector"
vector 941  BasicTopology.peer[13].bitTorrentApp.bitTorrentClient.contentManager_29  PiecesDownloaded:vector  ETV
attr source  ContentManager_PieceDownloaded
attr title  "Pieces Downloaded, vector"
vector 967  BasicTopology.peer[16].bitTorrentApp.bitTorrentClient.contentManager_29  TotalBytesUploaded:vector  ETV
attr source  ContentManager_TotalBytesUploaded
attr title  "Total of Bytes Uploaded, vector"
attr unit  B
vector 1013  BasicTopology.peer[22].bitTorrentApp.bitTorrentClient.contentManager_29  PiecesDownloaded:vector  ETV
attr source  ContentManager_PieceDownloaded
attr title  "Pieces Downloaded, vector"
vector 1015  BasicTopology.peer[22].bitTorrentApp.bitTorrentClient.contentManager_29  TotalBytesUploaded:vector  ETV
attr source  ContentManager_TotalBytesUploaded
attr title  "Total of Bytes Uploaded, vector"
attr unit  B
vector 926  BasicTopology.peer[11].bitTorrentApp.bitTorrentClient.contentManager_29  TotalBytesDownloaded:vector  ETV
attr source  ContentManager_TotalBytesDownloaded
attr title  "Total of Bytes Downloaded, vector"
attr unit  B
vector 1031  BasicTopology.peer[24].bitTorrentApp.bitTorrentClient.contentManager_29  TotalBytesUploaded:vector  ETV
attr source  ContentManager_TotalBytesUploaded
attr title  "Total of Bytes Uploaded, vector"
attr unit  B
vector 1005  BasicTopology.peer[21].bitTorrentApp.bitTorrentClient.contentManager_29  PiecesDownloaded:vector  ETV
attr source  ContentManager_PieceDownloaded
attr title  "Pieces Downloaded, vector"
vector 935  BasicTopology.peer[12].bitTorrentApp.bitTorrentClient.contentManager_29  TotalBytesUploaded:vector  ETV
attr source  ContentManager_TotalBytesUploaded
attr title  "Total of Bytes Uploaded, vector"
attr unit  B
vector 925  BasicTopology.peer[11].bitTorrentApp.bitTorrentClient.contentManager_29  PiecesDownloaded:vector  ETV
attr source  ContentManager_PieceDownloaded
attr title  "Pieces Downloaded, vector"
vector 927  BasicTopology.peer[11].bitTorrentApp.bitTorrentClient.contentManager_29  TotalBytesUploaded:vector  ETV
attr source  ContentManager_TotalBytesUploaded
attr title  "Total of Bytes Uploaded, vector"
attr unit  B
vector 1007  BasicTopology.peer[21].bitTorrentApp.bitTorrentClient.contentManager_29  TotalBytesUploaded:vector  ETV
attr source  ContentManager_TotalBytesUploaded
attr title  "Total of Bytes Uploaded, vector"
attr unit  B
vector 5  BasicTopology  DownloadEmittedPeerId:vector  ETV
attr source  ContentManager_EmittedPeerId
attr title  "Peer Download Signal Emitted, vector"
vector 943  BasicTopology.peer[13].bitTorrentApp.bitTorrentClient.contentManager_29  TotalBytesUploaded:vector  ETV
attr source  ContentManager_TotalBytesUploaded
attr title  "Total of Bytes Uploaded, vector"
attr unit  B
vector 911  BasicTopology.peer[9].bitTorrentApp.bitTorrentClient.contentManager_29  TotalBytesUploaded:vector  ETV
attr source  ContentManager_TotalBytesUploaded
attr title  "Total of Bytes Uploaded, vector"
attr unit  B
vector 958  BasicTopology.peer[15].bitTorrentApp.bitTorrentClient.contentManager_29  TotalBytesDownloaded:vector  ETV
attr source  ContentManager_TotalBytesDownloaded
attr title  "Total of Bytes Downloaded, vector"
attr unit  B
vector 957  BasicTopology.peer[15].bitTorrentApp.bitTorrentClient.contentManager_29  PiecesDownloaded:vector  ETV
attr source  ContentManager_PieceDownloaded
attr title  "Pieces Downloaded, vector"
vector 959  BasicTopology.peer[15].bitTorrentApp.bitTorrentClient.contentManager_29  TotalBytesUploaded:vector  ETV
attr source  ContentManager_TotalBytesUploaded
attr title  "Total of Bytes Uploaded, vector"
attr unit  B
vector 998  BasicTopology.peer[20].bitTorrentApp.bitTorrentClient.contentManager_29  TotalBytesDownloaded:vector  ETV
attr source  ContentManager_TotalBytesDownloaded
attr title  "Total of Bytes Downloaded, vector"
attr unit  B
vector 997  BasicTopology.peer[20].bitTorrentApp.bitTorrentClient.contentManager_29  PiecesDownloaded:vector  ETV
attr source  ContentManager_PieceDownloaded
attr title  "Pieces Downloaded, vector"
vector 4  BasicTopology  DownloadComplete:vector  ETV
attr source  ContentManager_100_percentDownloadTime
attr title  "Download Complete, vector"
attr unit  s
vector 999  BasicTopology.peer[20].bitTorrentApp.bitTorrentClient.contentManager_29  TotalBytesUploaded:vector  ETV
attr source  ContentManager_TotalBytesUploaded
attr title  "Total of Bytes Uploaded, vector"
attr unit  B
vector 982  BasicTopology.peer[18].bitTorrentApp.bitTorrentClient.contentManager_29  TotalBytesDownloaded:vector  ETV
attr source  ContentManager_TotalBytesDownloaded
attr title  "Total of Bytes Downloaded, vector"
attr unit  B
vector 981  BasicTopology.peer[18].bitTorrentApp.bitTorrentClient.contentManager_29  PiecesDownloaded:vector  ETV
attr source  ContentManager_PieceDownloaded
attr title  "Pieces Downloaded, vector"
0	64860434	259201	259201
0	64860435	259201	259201
0	64860436	259201	259201
0	64860437	259201	259201
0	64860438	259201	259201
0	64860439	259201	259201
0	64860440	259201	259201
0	64860441	259201	259201
0	64860442	259201	259201
0	64860443	259201	259201
0	64860444	259201	259201
0	64860445	259201	259201
0	64860446	259201	259201
0	64860447	259201	259201
0	64860448	259201	259201
0	93643792	259277.921398453772	259277.92139845
0	95192340	259283.598451879341	259283.59845188
0	97313046	259295.258401196749	259295.2584012
0	98409969	259313.662540106854	259313.66254011
0	100368210	259320.184053267442	259320.18405327
0	103290018	259343.670620315157	259343.67062032
0	104076818	259362.97348851342	259362.97348851
0	105143141	259385.968228256149	259385.96822826
0	106588260	259508.743614483331	259508.74361448
0	110548966	259527.957104980407	259527.95710498
0	111902538	259896.919874245306	259896.91987425
0	111911752	259898.820576205777	259898.82057621
0	113097554	260874.837464728154	260874.83746473
0	113166430	261029.01099613106	261029.01099613
0	115367945	261593.047162808083	261593.04716281
1	64859838	259200	259200
1	64859839	259200	259200
1	64859840	259200	259200
1	64859841	259200	259200
1	64859842	259200	259200
1	64859843	259200	259200
1	64859844	259200	259200
1	64859845	259200	259200
1	64859846	259200	259200
1	64859847	259200	259200
1	64860434	259201	259201
1	64860435	259201	259201
1	64860436	259201	259201
1	64860437	259201	259201
1	64860438	259201	259201
1	64860439	259201	259201
1	64860440	259201	259201
1	64860441	259201	259201
1	64860442	259201	259201
1	64860443	259201	259201
1	64860444	259201	259201
1	64860445	259201	259201
1	64860446	259201	259201
1	64860447	259201	259201
1	64860448	259201	259201
3	64859838	259200	6
3	64859839	259200	7
3	64859840	259200	8
3	64859841	259200	9
3	64859842	259200	10
3	64859843	259200	11
3	64859844	259200	12
3	64859845	259200	13
3	64859846	259200	14
3	64859847	259200	15
3	64860434	259201	16
3	64860435	259201	17
3	64860436	259201	18
3	64860437	259201	19
3	64860438	259201	20
3	64860439	259201	21
3	64860440	259201	22
3	64860441	259201	23
3	64860442	259201	24
3	64860443	259201	25
3	64860444	259201	26
3	64860445	259201	27
3	64860446	259201	28
3	64860447	259201	29
3	64860448	259201	30
4	93643792	259277.921398453772	72.481558051045
4	95192340	259283.598451879341	79.833841778386
4	97313046	259295.258401196749	91.68480755467
4	98409969	259313.662540106854	104.25034706467
4	100368210	259320.184053267442	114.16901723023
4	103290018	259343.670620315157	94.7109636082
4	104076818	259362.97348851342	110.40769276142
4	105143141	259385.968228256149	180.43906597699
4	106588260	259508.743614483331	307.17815064781
4	110548966	259527.957104980407	322.31150590163
4	111902538	259896.919874245306	693.81969891648
4	111911752	259898.820576205777	695.21097477766
4	113097554	260874.837464728154	1666.5874213164
4	113166430	261029.01099613106	1826.4775791994
4	115367945	261593.047162808083	81.982489444792
5	70114011	259213.482558527143	22
5	70425005	259214.162222310178	18
5	72838330	259218.94780764895	25
5	73226311	259219.726478743113	29
5	73724275	259220.818814455732	16
5	74417334	259222.273456482728	23
5	74959080	259223.289097614009	17
5	75080765	259223.453657160787	20
5	75237809	259223.814794152913	27
5	76079042	259225.434320950597	30
5	77007414	259227.130448385099	18
5	78232898	259229.478595120055	22
5	78738292	259230.452055525313	25
5	79629890	259231.935136860584	19
5	79887830	259232.507948119498	29
5	80233166	259233.258632954137	18
5	80462903	259233.845240551622	28
5	81214871	259235.922984523761	23
5	82104354	259238.784887401209	17
5	84384961	259246.911918200058	23
5	84703721	259247.737615408365	29
5	86994354	259254.79256635829	20
5	87216181	259255.504780171826	16
5	88189052	259258.459602918786	28
5	88654546	259260.154512553518	17
5	91444801	259270.161615765514	20
5	92941742	259275.56030197498	28
5	93090780	259275.967486569572	21
5	93643792	259277.921398453772	18
5	94027739	259279.231236148302	26
5	94492376	259281.370654082103	16
5	95192340	259283.598451879341	29
5	97313046	259295.258401196749	20
5	97685419	259300.098789960412	21
5	98014862	259305.441535172463	26
5	98409969	259313.662540106854	17
5	100368210	259320.184053267442	28
5	100940986	259322.122900146267	21
5	102629392	259330.361746304758	26
5	103290018	259343.670620315157	21
5	103922906	259360.446172859656	30
5	104076818	259362.97348851342	26
5	104686801	259376.083649423846	30
5	105143141	259385.968228256149	30
5	106588260	259508.743614483331	16
5	106990263	259510.73211662908	19
5	108896619	259519.832251927138	19
5	109522239	259522.692122987318	25
5	109758549	259523.600217140689	22
5	110548966	259527.957104980407	19
5	111902538	259896.919874245306	25
5	111911752	259898.820576205777	22
5	112554592	260835.443196079044	27
5	112857657	260859.268892638919	27
5	113097554	260874.837464728154	27
5	113166430	261029.01099613106	23
5	113774755	261531.786794071003	24
5	114245822	261557.70554129946	24
5	114730281	261576.62345796164	24
5	115367945	261593.047162808083	24
27	64860434	259201	259201
27	106588260	259508.743614483331	259508.74361448
29	64860435	259201	259201
29	98409969	259313.662540106854	259313.66254011
31	64860436	259201	259201
31	93643792	259277.921398453772	259277.92139845
33	64860437	259201	259201
33	110548966	259527.957104980407	259527.95710498
35	64860438	259201	259201
35	97313046	259295.258401196749	259295.2584012
37	64860439	259201	259201
37	103290018	259343.670620315157	259343.67062032
39	64860440	259201	259201
39	111911752	259898.820576205777	259898.82057621
41	64860441	259201	259201
41	113166430	261029.01099613106	261029.01099613
43	64860442	259201	259201
43	115367945	261593.047162808083	261593.04716281
45	64860443	259201	259201
45	111902538	259896.919874245306	259896.91987425
47	64860444	259201	259201
47	104076818	259362.97348851342	259362.97348851
49	64860445	259201	259201
49	113097554	260874.837464728154	260874.83746473
51	64860446	259201	259201
51	100368210	259320.184053267442	259320.18405327
53	64860447	259201	259201
53	95192340	259283.598451879341	259283.59845188
55	64860448	259201	259201
55	105143141	259385.968228256149	259385.96822826
839	64894857	259201.067587511403	32768
839	64894916	259201.06773558621	65536
839	64902725	259201.085527402594	98304
839	64903081	259201.086123619833	131072
839	64903569	259201.086955804121	163840
839	64909304	259201.104115911494	196608
839	64910894	259201.114871840107	229376
839	64913039	259201.1267346409	262144
839	64913043	259201.129345777823	294912
839	64913045	259201.129948307031	327680
839	65116017	259202.287326150326	360448
839	65125510	259202.331581027071	393216
839	65139970	259202.392770624993	425984
839	65176704	259202.440397615086	458752
839	65193131	259202.460105385614	491520
839	65210761	259202.484569696281	524288
839	65249542	259202.534394938154	557056
839	65281685	259202.579827612041	589824
839	65296836	259202.603915803243	622592
839	65589470	259203.540189587075	655360
839	65614681	259203.568716221178	688128
839	65641303	259203.606129258787	720896
839	66145616	259205.028291578533	753664
839	66146077	259205.029493333268	786432
839	66146728	259205.031187704331	819200
839	66146932	259205.031697696516	851968
839	66148742	259205.035793604908	884736
839	66148993	259205.03646499987	917504
839	66150681	259205.040800641196	950272
839	66150935	259205.041389069309	983040
839	66157480	259205.057817592582	1015808
839	66157967	259205.059328410734	1048576
839	66158249	259205.059842344089	1081344
839	66163953	259205.075313696594	1114112
839	66164014	259205.075625788291	1146880
839	66164127	259205.076048742581	1179648
839	66165654	259205.081994570989	1212416
839	66167758	259205.087031033546	1245184
839	66167955	259205.087486688223	1277952
839	66170014	259205.093180731986	1310720
839	66173683	259205.102207155731	1343488
839	66176445	259205.109963342104	1376256
839	66454387	259205.602872082546	1409024
839	66460555	259205.612968362432	1441792
839	66462448	259205.61651276646	1474560
839	66473043	259205.633824679771	1507328
839	66474015	259205.635055048308	1540096
839	66474141	259205.635220324157	1572864
839	66484265	259205.647396780449	1605632
839	66484654	259205.647976297887	1638400
839	66492235	259205.65682247726	1671168
839	66495651	259205.660839192656	1703936
839	67317587	259207.583002187127	1736704
839	67351600	259207.64506378203	1769472
839	67351726	259207.645317380335	1802240
839	67440216	259207.771003380083	1835008
839	67449561	259207.78323309651	1867776
839	67483800	259207.834795098687	1900544
839	68014938	259208.860496317636	1933312
839	68068032	259208.949698094185	1966080
839	68549085	259210.00165721685	1998848
839	68600665	259210.097215480485	2031616
839	68651103	259210.177631826395	2064384
839	69209494	259211.293649196622	2097152
839	69226138	259211.335771275519	2129920
839	69613651	259212.366587649085	2162688
839	69633052	259212.395891262656	2195456
839	69722339	259212.539256475609	2228224
839	69725003	259212.546333671471	2260992
839	69725084	259212.546481560056	2293760
839	69733086	259212.56404844145	2326528
839	70193907	259213.618588203568	2359296
839	70228105	259213.669033378918	2392064
839	70278851	259213.748755551302	2424832
839	70730955	259214.798155520728	2457600
839	70942270	259215.198196850182	2490368
839	70980427	259215.290716486478	2523136
839	70996747	259215.329678646677	2555904
839	71028585	259215.39163217685	2588672
839	71063788	259215.457724417858	2621440
839	71110854	259215.540257256341	2654208
839	71137836	259215.590454164601	2686976
839	71264290	259215.850687489251	2719744
839	71273001	259215.873072297714	2752512
839	71299423	259215.930235448469	2785280
839	71524131	259216.402066460183	2818048
839	71554497	259216.470642453593	2850816
839	71613760	259216.57337917974	2883584
839	71655639	259216.648098657152	2916352
839	71703319	259216.722804994449	2949120
839	71776172	259216.83712828283	2981888
839	71814658	259216.901731598001	3014656
839	71832365	259216.961836056404	3047424
839	71839078	259216.993087840252	3080192
839	71840445	259216.998765724974	3112960
839	72057947	259217.424291053896	3145728
839	72095989	259217.511278345799	3178496
839	72155793	259217.608442205029	3211264
839	72360942	259218.005484974639	3244032
839	72899929	259219.088646520286	3276800
839	73254091	259219.775980251747	3309568
839	73440962	259220.161510650141	3342336
839	73796612	259220.947787988556	3375104
839	73918549	259221.15196339029	3407872
839	74013418	259221.345022070351	3440640
839	74379246	259222.214983970956	3473408
839	74432520	259222.300996156532	3506176
839	74875819	259223.170742436099	3538944
839	74933895	259223.252121894218	3571712
839	75017464	259223.370499949883	3604480
839	75160529	259223.624182118397	3637248
839	75245031	259223.832584612131	3670016
839	75536409	259224.38323751924	3702784
839	75553232	259224.405319344678	3735552
839	75788678	259224.796243852907	3768320
839	76080866	259225.437889507338	3801088
839	76100237	259225.477150404805	3833856
839	76177282	259225.632255108409	3866624
839	76241616	259225.71967909203	3899392
839	76625967	259226.526615273123	3932160
839	76634839	259226.54173333853	3964928
839	76659895	259226.588652008751	3997696
839	76789905	259226.820988300849	4030464
839	77229583	259227.607227852259	4063232
839	77248928	259227.644872542744	4096000
839	77268800	259227.685775281546	4128768
839	77848412	259228.690690217288	4161536
839	77873703	259228.750892350467	4194304
839	77987860	259229.077768404472	4227072
839	78053476	259229.164964661959	4259840
839	78103855	259229.262972619152	4292608
839	78174602	259229.394936324354	4325376
839	78371834	259229.724936757048	4358144
839	78406374	259229.779066889957	4390912
839	78450228	259229.861153073132	4423680
839	78793919	259230.527870771253	4456448
839	79115314	259230.98056391789	4489216
839	79154273	259231.046110586545	4521984
839	79214164	259231.144979354554	4554752
839	79267608	259231.231507515213	4587520
839	80068464	259232.951331652812	4620288
839	80309101	259233.482039776954	4653056
839	80355447	259233.586534327235	4685824
839	80470381	259233.86100903374	4718592
839	80901507	259234.969438222253	4751360
839	80919715	259234.997844957622	4784128
839	80930358	259235.015624582365	4816896
839	80948087	259235.044914593338	4849664
839	81297540	259236.079781357409	4882432
839	81305798	259236.094007813355	4915200
839	81318505	259236.116099330245	4947968
839	81332497	259236.13982734616	4980736
839	81352830	259236.177471792992	5013504
839	81363970	259236.202037483163	5046272
839	81681221	259237.214390582585	5079040
839	81691264	259237.239570877674	5111808
839	81706367	259237.277586685196	5144576
839	81711114	259237.289865111709	5177344
839	81719079	259237.310475302467	5210112
839	81977217	259238.334010927386	5242880
839	82216168	259239.355828093011	5275648
839	82235494	259239.401732537641	5308416
839	82247757	259239.430102891206	5341184
839	82269765	259239.479136223566	5373952
839	82275685	259239.49297103174	5406720
839	82277664	259239.497303490792	5439488
839	82711532	259241.531092724916	5472256
839	82721325	259241.554258755411	5505024
839	82736285	259241.587655521636	5537792
839	83057144	259242.636299630256	5570560
839	83070007	259242.656880997643	5603328
839	83390398	259243.683846816824	5636096
839	83422041	259243.742633993112	5668864
839	83422219	259243.742933142239	5701632
839	83428275	259243.752528318586	5734400
839	83442441	259243.775298160967	5767168
839	83457578	259243.798188252282	5799936
839	83480432	259243.832234244292	5832704
839	83490402	259243.847606983647	5865472
839	83504937	259243.870552347272	5898240
839	83805227	259244.903683666796	5931008
839	83808261	259244.91888377571	5963776
839	84104861	259245.942899211806	5996544
839	84121898	259245.983258142041	6029312
839	84136308	259246.015669710777	6062080
839	84145459	259246.032404503117	6094848
839	84149460	259246.040004204607	6127616
839	84168423	259246.07523567901	6160384
839	84177465	259246.099737703187	6193152
839	84182822	259246.114333419564	6225920
839	84193663	259246.138236985847	6258688
839	84210020	259246.172858451813	6291456
839	84461561	259247.186901944595	6324224
839	84486778	259247.228084360583	6356992