file 908378 1593887688                                          
version 2
run Test-3-20200526-20:42:05-4185
attr configname Test
attr datetime 20200526-20:42:05
attr experiment "\"Simulation Test\""
attr inifile BasicConfig.ini
attr iterationvars ""
attr iterationvars2 $repetition=3
attr measurement "\"Peers: $peers, Rate: $rate\""
attr network BasicTopology
attr processid 4185
attr repetition 3
attr replication #3
attr resultdir results
attr runnumber 3
attr seedset 3
vector 3  BasicTopology.peer[1].bitTorrentApp.bitTorrentClient  DownloadComplete_Test:vector  ETV
attr source BitTorrentClient_DownloadComplete_Test
attr title "Descargas completas (prueba), vector"
3	42216 65 153 197019474 36001 36162.559051517351 2 36001 36162.559051517 72163.559051517 2603802678.1545
vector 5  BasicTopology.peer[2].bitTorrentApp.bitTorrentClient  DownloadComplete_Test:vector  ETV
attr source BitTorrentClient_DownloadComplete_Test
attr title "Descargas completas (prueba), vector"
5	42281 63 154 51477483 36001 36044.149328459684 2 36001 36044.14932846 72045.14932846 2595252701.8123
vector 7  BasicTopology.peer[3].bitTorrentApp.bitTorrentClient  DownloadComplete_Test:vector  ETV
attr source BitTorrentClient_DownloadComplete_Test
attr title "Descargas completas (prueba), vector"
7	42344 65 155 184825426 36001 36149.010029106599 2 36001 36149.010029107 72150.010029107 2602822927.0845
vector 9  BasicTopology.peer[4].bitTorrentApp.bitTorrentClient  DownloadComplete_Test:vector  ETV
attr source BitTorrentClient_DownloadComplete_Test
attr title "Descargas completas (prueba), vector"
9	42409 65 156 199758752 36001 36165.806790336513 2 36001 36165.806790337 72166.806790337 2604037581.796
vector 11  BasicTopology.peer[5].bitTorrentApp.bitTorrentClient  DownloadComplete_Test:vector  ETV
attr source BitTorrentClient_DownloadComplete_Test
attr title "Descargas completas (prueba), vector"
11	42474 67 157 206665200 36001 36174.084347561682 2 36001 36174.084347562 72175.084347562 2604636379.3845
vector 13  BasicTopology.peer[6].bitTorrentApp.bitTorrentClient  DownloadComplete_Test:vector  ETV
attr source BitTorrentClient_DownloadComplete_Test
attr title "Descargas completas (prueba), vector"
13	42541 67 158 206547206 36001 36173.961084134342 2 36001 36173.961084134 72174.961084134 2604627461.5164
vector 15  BasicTopology.peer[7].bitTorrentApp.bitTorrentClient  DownloadComplete_Test:vector  ETV
attr source BitTorrentClient_DownloadComplete_Test
attr title "Descargas completas (prueba), vector"
15	42608 66 159 203518348 36001 36170.203661979645 2 36001 36170.20366198 72171.20366198 2604355633.9491
vector 17  BasicTopology.peer[8].bitTorrentApp.bitTorrentClient  DownloadComplete_Test:vector  ETV
attr source BitTorrentClient_DownloadComplete_Test
attr title "Descargas completas (prueba), vector"
17	42674 67 160 226955520 36001 36201.389029183644 2 36001 36201.389029184 72202.389029184 2606612568.6423
vector 19  BasicTopology.peer[9].bitTorrentApp.bitTorrentClient  DownloadComplete_Test:vector  ETV
attr source BitTorrentClient_DownloadComplete_Test
attr title "Descargas completas (prueba), vector"
19	42741 66 161 223730966 36001 36196.51392174294 2 36001 36196.513921743 72197.513921743 2606259621.0869
vector 21  BasicTopology.peer[10].bitTorrentApp.bitTorrentClient  DownloadComplete_Test:vector  ETV
attr source BitTorrentClient_DownloadComplete_Test
attr title "Descargas completas (prueba), vector"
21	42807 66 162 74180447 36001 36060.089164185401 2 36001 36060.089164185 72061.089164185 2596402031.529
vector 23  BasicTopology.peer[11].bitTorrentApp.bitTorrentClient  DownloadComplete_Test:vector  ETV
attr source BitTorrentClient_DownloadComplete_Test
attr title "Descargas completas (prueba), vector"
23	42873 67 163 189261042 36001 36153.715079962977 2 36001 36153.715079963 72154.715079963 2603163115.0831
vector 25  BasicTopology.peer[12].bitTorrentApp.bitTorrentClient  DownloadComplete_Test:vector  ETV
attr source BitTorrentClient_DownloadComplete_Test
attr title "Descargas completas (prueba), vector"
25	42940 67 164 225014453 36001 36198.303687194285 2 36001 36198.303687194 72199.303687194 2606389190.8303
vector 27  BasicTopology.peer[13].bitTorrentApp.bitTorrentClient  DownloadComplete_Test:vector  ETV
attr source BitTorrentClient_DownloadComplete_Test
attr title "Descargas completas (prueba), vector"
27	43007 67 165 215223558 36001 36184.763996053819 2 36001 36184.763996054 72185.763996054 2605409146.4501
vector 29  BasicTopology.peer[14].bitTorrentApp.bitTorrentClient  DownloadComplete_Test:vector  ETV
attr source BitTorrentClient_DownloadComplete_Test
attr title "Descargas completas (prueba), vector"
29	43074 67 166 227622928 36001 36202.483397460661 2 36001 36202.483397461 72203.483397461 2606691805.1434
vector 31  BasicTopology.peer[15].bitTorrentApp.bitTorrentClient  DownloadComplete_Test:vector  ETV
attr source BitTorrentClient_DownloadComplete_Test
attr title "Descargas completas (prueba), vector"
31	43141 67 167 236348338 36001 36304.615879657108 2 36001 36304.615879657 72305.615879657 2614097135.1694
vector 33  BasicTopology.peer[16].bitTorrentApp.bitTorrentClient  DownloadComplete_Test:vector  ETV
attr source BitTorrentClient_DownloadComplete_Test
attr title "Descargas completas (prueba), vector"
33	43208 67 168 224307269 36001 36197.318819568468 2 36001 36197.318819568 72198.318819568 2606317890.7255
vector 35  BasicTopology.peer[17].bitTorrentApp.bitTorrentClient  DownloadComplete_Test:vector  ETV
attr source BitTorrentClient_DownloadComplete_Test
attr title "Descargas completas (prueba), vector"
35	43275 67 169 197041584 36001 36162.575609518937 2 36001 36162.575609519 72163.575609519 2603803875.7142
vector 37  BasicTopology.peer[18].bitTorrentApp.bitTorrentClient  DownloadComplete_Test:vector  ETV
attr source BitTorrentClient_DownloadComplete_Test
attr title "Descargas completas (prueba), vector"
37	43342 67 170 210335601 36001 36178.830300231977 2 36001 36178.830300232 72179.830300232 2604979762.893
vector 39  BasicTopology.peer[19].bitTorrentApp.bitTorrentClient  DownloadComplete_Test:vector  ETV
attr source BitTorrentClient_DownloadComplete_Test
attr title "Descargas completas (prueba), vector"
39	43409 67 171 181106278 36001 36145.222534745246 2 36001 36145.222534745 72146.222534745 2602549113.0862
vector 41  BasicTopology.peer[20].bitTorrentApp.bitTorrentClient  DownloadComplete_Test:vector  ETV
attr source BitTorrentClient_DownloadComplete_Test
attr title "Descargas completas (prueba), vector"
41	43476 67 172 204155907 36001 36170.950012872092 2 36001 36170.950012872 72171.950012872 2604409625.8337
vector 43  BasicTopology.peer[21].bitTorrentApp.bitTorrentClient  DownloadComplete_Test:vector  ETV
attr source BitTorrentClient_DownloadComplete_Test
attr title "Descargas completas (prueba), vector"
43	43543 67 173 217028525 36001 36187.022378522681 2 36001 36187.022378523 72188.022378523 2605572589.6237
vector 45  BasicTopology.peer[22].bitTorrentApp.bitTorrentClient  DownloadComplete_Test:vector  ETV
attr source BitTorrentClient_DownloadComplete_Test
attr title "Descargas completas (prueba), vector"
45	43610 67 174 222972246 36001 36195.534587579416 2 36001 36195.534587579 72196.534587579 2606188725.0806
vector 47  BasicTopology.peer[23].bitTorrentApp.bitTorrentClient  DownloadComplete_Test:vector  ETV
attr source BitTorrentClient_DownloadComplete_Test
attr title "Descargas completas (prueba), vector"
47	43677 67 175 218870613 36001 36189.811030870787 2 36001 36189.811030871 72190.811030871 2605774423.4502
vector 49  BasicTopology.peer[24].bitTorrentApp.bitTorrentClient  DownloadComplete_Test:vector  ETV
attr source BitTorrentClient_DownloadComplete_Test
attr title "Descargas completas (prueba), vector"
49	43744 67 176 222978539 36001 36195.541645725787 2 36001 36195.541645726 72196.541645726 2606189236.0275
vector 51  BasicTopology.peer[25].bitTorrentApp.bitTorrentClient  DownloadComplete_Test:vector  ETV
attr source BitTorrentClient_DownloadComplete_Test
attr title "Descargas completas (prueba), vector"
51	43811 67 177 235691628 36001 36301.417693953648 2 36001 36301.417693954 72302.417693954 2613864927.5909
vector 53  BasicTopology.peer[26].bitTorrentApp.bitTorrentClient  DownloadComplete_Test:vector  ETV
attr source BitTorrentClient_DownloadComplete_Test
attr title "Descargas completas (prueba), vector"
53	43878 67 178 229418553 36001 36205.872960964489 2 36001 36205.872960964 72206.872960964 2606937237.8655
vector 55  BasicTopology.peer[27].bitTorrentApp.bitTorrentClient  DownloadComplete_Test:vector  ETV
attr source BitTorrentClient_DownloadComplete_Test
attr title "Descargas completas (prueba), vector"
55	43945 67 179 230471376 36001 36209.017289761126 2 36001 36209.017289761 72210.017289761 2607164934.0902
vector 57  BasicTopology.peer[28].bitTorrentApp.bitTorrentClient  DownloadComplete_Test:vector  ETV
attr source BitTorrentClient_DownloadComplete_Test
attr title "Descargas completas (prueba), vector"
57	44012 67 180 196352543 36001 36161.835262473483 2 36001 36161.835262473 72162.835262473 2603750330.5502
vector 59  BasicTopology.peer[29].bitTorrentApp.bitTorrentClient  DownloadComplete_Test:vector  ETV
attr source BitTorrentClient_DownloadComplete_Test
attr title "Descargas completas (prueba), vector"
59	44079 67 181 232032457 36001 36228.404944236849 2 36001 36228.404944237 72229.404944237 2608569325.8036
vector 61  BasicTopology.peer[30].bitTorrentApp.bitTorrentClient  DownloadComplete_Test:vector  ETV
attr source BitTorrentClient_DownloadComplete_Test
attr title "Descargas completas (prueba), vector"
61	44146 67 182 225769679 36001 36199.381785884796 2 36001 36199.381785885 72200.381785885 2606467242.6803
vector 63  BasicTopology.peer[31].bitTorrentApp.bitTorrentClient  DownloadComplete_Test:vector  ETV
attr source BitTorrentClient_DownloadComplete_Test
attr title "Descargas completas (prueba), vector"
63	44213 67 183 229892223 36001 36207.120334473546 2 36001 36207.120334474 72208.120334474 2607027563.9151
vector 65  BasicTopology.peer[32].bitTorrentApp.bitTorrentClient  DownloadComplete_Test:vector  ETV
attr source BitTorrentClient_DownloadComplete_Test
attr title "Descargas completas (prueba), vector"
65	44280 66 184 224236259 36001 36197.19826977575 2 36001 36197.198269776 72198.198269776 2606309163.5815
vector 67  BasicTopology.peer[33].bitTorrentApp.bitTorrentClient  DownloadComplete_Test:vector  ETV
attr source BitTorrentClient_DownloadComplete_Test
attr title "Descargas completas (prueba), vector"
67	44346 67 185 235854948 36001 36302.723430521748 2 36001 36302.723430522 72303.723430522 2613959729.473
vector 69  BasicTopology.peer[34].bitTorrentApp.bitTorrentClient  DownloadComplete_Test:vector  ETV
attr source BitTorrentClient_DownloadComplete_Test
attr title "Descargas completas (prueba), vector"
69	44413 67 186 226958446 36001 36201.390796288494 2 36001 36201.390796288 72202.390796288 2606612696.5856
vector 71  BasicTopology.peer[35].bitTorrentApp.bitTorrentClient  DownloadComplete_Test:vector  ETV
attr source BitTorrentClient_DownloadComplete_Test
attr title "Descargas completas (prueba), vector"
71	44480 67 187 230635402 36001 36209.381856488313 2 36001 36209.381856488 72210.381856488 2607191335.429
vector 73  BasicTopology.peer[36].bitTorrentApp.bitTorrentClient  DownloadComplete_Test:vector  ETV
attr source BitTorrentClient_DownloadComplete_Test
attr title "Descargas completas (prueba), vector"
73	44547 67 188 229516391 36001 36206.035390968748 2 36001 36206.035390969 72207.035390969 2606948999.7321
vector 75  BasicTopology.peer[37].bitTorrentApp.bitTorrentClient  DownloadComplete_Test:vector  ETV
attr source BitTorrentClient_DownloadComplete_Test
attr title "Descargas completas (prueba), vector"
75	44614 67 189 224732338 36001 36197.929012023285 2 36001 36197.929012023 72198.929012023 2606362065.7595
vector 77  BasicTopology.peer[38].bitTorrentApp.bitTorrentClient  DownloadComplete_Test:vector  ETV
attr source BitTorrentClient_DownloadComplete_Test
attr title "Descargas completas (prueba), vector"
77	44681 66 190 228209829 36001 36203.683439870412 2 36001 36203.68343987 72204.68343987 2606778695.6143
vector 79  BasicTopology.peer[39].bitTorrentApp.bitTorrentClient  DownloadComplete_Test:vector  ETV
attr source BitTorrentClient_DownloadComplete_Test
attr title "Descargas completas (prueba), vector"
79	44747 67 191 208541445 36001 36176.476584440663 2 36001 36176.476584441 72177.476584441 2604809459.0646
vector 81  BasicTopology.peer[40].bitTorrentApp.bitTorrentClient  DownloadComplete_Test:vector  ETV
attr source BitTorrentClient_DownloadComplete_Test
attr title "Descargas completas (prueba), vector"
81	44814 67 192 221505806 36001 36193.477562047463 2 36001 36193.477562047 72194.477562047 2606039819.0344
vector 83  BasicTopology.peer[41].bitTorrentApp.bitTorrentClient  DownloadComplete_Test:vector  ETV
attr source BitTorrentClient_DownloadComplete_Test
attr title "Descargas completas (prueba), vector"
83	44881 67 193 175711903 36001 36139.932576357567 2 36001 36139.932576358 72140.932576358 2602166727.6237
vector 85  BasicTopology.peer[42].bitTorrentApp.bitTorrentClient  DownloadComplete_Test:vector  ETV
attr source BitTorrentClient_DownloadComplete_Test
attr title "Descargas completas (prueba), vector"
85	44948 67 194 206177148 36001 36173.449415803307 2 36001 36173.449415803 72174.449415803 2604590443.6377
vector 87  BasicTopology.peer[43].bitTorrentApp.bitTorrentClient  DownloadComplete_Test:vector  ETV
attr source BitTorrentClient_DownloadComplete_Test
attr title "Descargas completas (prueba), vector"
87	45015 67 195 214492317 36001 36183.962050562803 2 36001 36183.962050563 72184.962050563 2605351110.6766
vector 89  BasicTopology.peer[44].bitTorrentApp.bitTorrentClient  DownloadComplete_Test:vector  ETV
attr source BitTorrentClient_DownloadComplete_Test
attr title "Descargas completas (prueba), vector"
89	45082 67 196 217544178 36001 36187.745031731264 2 36001 36187.745031731 72188.745031731 2605624891.4816
vector 91  BasicTopology.peer[45].bitTorrentApp.bitTorrentClient  DownloadComplete_Test:vector  ETV
attr source BitTorrentClient_DownloadComplete_Test
attr title "Descargas completas (prueba), vector"
91	45149 67 197 209227590 36001 36177.320893196673 2 36001 36177.320893197 72178.320893197 2604870548.0093
vector 93  BasicTopology.peer[46].bitTorrentApp.bitTorrentClient  DownloadComplete_Test:vector  ETV
attr source BitTorrentClient_DownloadComplete_Test
attr title "Descargas completas (prueba), vector"
93	45216 67 198 207852940 36001 36175.775228651206 2 36001 36175.775228651 72176.775228651 2604758714.3939
vector 95  BasicTopology.peer[47].bitTorrentApp.bitTorrentClient  DownloadComplete_Test:vector  ETV
attr source BitTorrentClient_DownloadComplete_Test
attr title "Descargas completas (prueba), vector"
95	45283 67 199 223623223 36001 36196.371480939138 2 36001 36196.371480939 72197.371480939 2606249309.3861
vector 97  BasicTopology.peer[48].bitTorrentApp.bitTorrentClient  DownloadComplete_Test:vector  ETV
attr source BitTorrentClient_DownloadComplete_Test
attr title "Descargas completas (prueba), vector"
97	45350 67 200 230901536 36001 36210.217832631388 2 36001 36210.217832631 72211.217832631 2607251876.4866
vector 99  BasicTopology.peer[49].bitTorrentApp.bitTorrentClient  DownloadComplete_Test:vector  ETV
attr source BitTorrentClient_DownloadComplete_Test
attr title "Descargas completas (prueba), vector"
99	45417 67 201 228445043 36001 36204.063642920571 2 36001 36204.063642921 72205.063642921 2606806225.2607
vector 1633  BasicTopology.peer[0].bitTorrentApp.bitTorrentClient.contentManager_51  TotalBytesUploaded:vector  ETV
attr source ContentManager_TotalBytesUploaded
attr title "Total of Bytes Uploaded, vector"
attr unit B
1633	45484 20402 423315 235993769 36001.157592120902 36303.038383549611 502 16384 8224768 2068529152 1.1353411844833e+16
vector 1712  BasicTopology.peer[10].bitTorrentApp.bitTorrentClient.contentManager_51  TotalBytesDownloaded:vector  ETV
attr source ContentManager_TotalBytesDownloaded
attr title "Total of Bytes Downloaded, vector"
attr unit B
1712	242567 7748 1368084 74180447 36002.586866169155 36060.089164185401 192 16384 3145728 303562752 6.3827508985856e+14
vector 1648  BasicTopology.peer[2].bitTorrentApp.bitTorrentClient.contentManager_51  TotalBytesDownloaded:vector  ETV
attr source ContentManager_TotalBytesDownloaded
attr title "Total of Bytes Downloaded, vector"
attr unit B
1648	84298 7754 1458999 51477483 36002.68257333239 36044.149328459684 192 16384 3145728 303562752 6.3827508985856e+14
vector 1960  BasicTopology.peer[41].bitTorrentApp.bitTorrentClient.contentManager_51  TotalBytesDownloaded:vector  ETV
attr source ContentManager_TotalBytesDownloaded
attr title "Total of Bytes Downloaded, vector"
attr unit B
1960	754379 7901 1509467 175711903 36002.735663062351 36139.932576357567 194 16384 3178496 309903360 6.5837687898112e+14
vector 1984  BasicTopology.peer[44].bitTorrentApp.bitTorrentClient.contentManager_51  TotalBytesDownloaded:vector  ETV
attr source ContentManager_TotalBytesDownloaded
attr title "Total of Bytes Downloaded, vector"
attr unit B
1984	808191 7831 1786759 217544178 36003.289975191363 36187.745031731264 192 16384 3145728 303562752 6.3827508985856e+14
vector 1647  BasicTopology.peer[2].bitTorrentApp.bitTorrentClient.contentManager_51  PiecesDownloaded:vector  ETV
attr source ContentManager_PieceDownloaded
attr title "Pieces Downloaded, vector"
1647	83450 848 1956212 51477483 36003.963112282502 36044.149328459684 24 0 23 276 4324
vector 1649  BasicTopology.peer[2].bitTorrentApp.bitTorrentClient.contentManager_51  TotalBytesUploaded:vector  ETV
attr source ContentManager_TotalBytesUploaded
attr title "Total of Bytes Uploaded, vector"
attr unit B
1649	92052 16230 1971225 230539577 36003.996833177172 36209.141036053202 399 16384 6537216 1307443200 5.7051661205504e+15
vector 1711  BasicTopology.peer[10].bitTorrentApp.bitTorrentClient.contentManager_51  PiecesDownloaded:vector  ETV
attr source ContentManager_PieceDownloaded
attr title "Pieces Downloaded, vector"
1711	241716 851 2946336 74180447 36004.903446740143 36060.089164185401 24 0 23 276 4324
vector 1713  BasicTopology.peer[10].bitTorrentApp.bitTorrentClient.contentManager_51  TotalBytesUploaded:vector  ETV
attr source ContentManager_TotalBytesUploaded
attr title "Total of Bytes Uploaded, vector"
attr unit B
1713	250315 13152 2966910 219263144 36004.98964878122 36190.305772524227 324 16384 5308416 862617600 3.0574664220672e+15
vector 1640  BasicTopology.peer[1].bitTorrentApp.bitTorrentClient.contentManager_51  TotalBytesDownloaded:vector  ETV
attr source ContentManager_TotalBytesDownloaded
attr title "Total of Bytes Downloaded, vector"
attr unit B
1640	66748 7869 3060767 197019474 36005.061392445613 36162.559051517351 192 16384 3145728 303562752 6.3827508985856e+14
vector 1639  BasicTopology.peer[1].bitTorrentApp.bitTorrentClient.contentManager_51  PiecesDownloaded:vector  ETV
attr source ContentManager_PieceDownloaded
attr title "Pieces Downloaded, vector"
1639	65886 862 3220341 197019474 36005.401173736325 36162.559051517351 24 0 23 276 4324
vector 1641  BasicTopology.peer[1].bitTorrentApp.bitTorrentClient.contentManager_51  TotalBytesUploaded:vector  ETV
attr source ContentManager_TotalBytesUploaded
attr title "Total of Bytes Uploaded, vector"
attr unit B
1641	74617 8833 3262102 235532087 36005.498424718889 36301.094422079235 217 16384 3555328 387530752 9.2064905691136e+14
vector 1888  BasicTopology.peer[32].bitTorrentApp.bitTorrentClient.contentManager_51  TotalBytesDownloaded:vector  ETV
attr source ContentManager_TotalBytesDownloaded
attr title "Total of Bytes Downloaded, vector"
attr unit B
1888	601880 7852 3268611 224236259 36005.503704189327 36197.19826977575 192 16384 3145728 303562752 6.3827508985856e+14
vector 1680  BasicTopology.peer[6].bitTorrentApp.bitTorrentClient.contentManager_51  TotalBytesDownloaded:vector  ETV
attr source ContentManager_TotalBytesDownloaded
attr title "Total of Bytes Downloaded, vector"
attr unit B
1680	165071 7847 3479434 206547206 36005.715944930199 36173.961084134342 192 16384 3145728 303562752 6.3827508985856e+14
vector 1832  BasicTopology.peer[25].bitTorrentApp.bitTorrentClient.contentManager_51  TotalBytesDownloaded:vector  ETV
attr source ContentManager_TotalBytesDownloaded
attr title "Total of Bytes Downloaded, vector"
attr unit B
1832	490337 8011 3525309 235691628 36005.800103803504 36301.417693953648 195 16384 3194880 313098240 6.6858413719552e+14
vector 1831  BasicTopology.peer[25].bitTorrentApp.bitTorrentClient.contentManager_51  PiecesDownloaded:vector  ETV
attr source ContentManager_PieceDownloaded
attr title "Pieces Downloaded, vector"
1831	489474 863 3706248 235691628 36006.157134791378 36301.417693953648 24 0 23 276 4324
vector 1833  BasicTopology.peer[25].bitTorrentApp.bitTorrentClient.contentManager_51  TotalBytesUploaded:vector  ETV
attr source ContentManager_TotalBytesUploaded
attr title "Total of Bytes Uploaded, vector"
attr unit B
1833	498348 10871 3745273 231870940 36006.244966380687 36228.053173176267 268 16384 4390912 590577664 1.7320083760087e+15
vector 1728  BasicTopology.peer[12].bitTorrentApp.bitTorrentClient.contentManager_51  TotalBytesDownloaded:vector  ETV
attr source ContentManager_TotalBytesDownloaded
attr title "Total of Bytes Downloaded, vector"
attr unit B
1728	283481 7851 4098929 225014453 36006.941128364194 36198.303687194285 192 16384 3145728 303562752 6.3827508985856e+14
vector 1887  BasicTopology.peer[32].bitTorrentApp.bitTorrentClient.contentManager_51  PiecesDownloaded:vector  ETV
attr source ContentManager_PieceDownloaded
attr title "Pieces Downloaded, vector"
1887	601019 861 4137365 224236259 36006.998722608416 36197.19826977575 24 0 23 276 4324
vector 1889  BasicTopology.peer[32].bitTorrentApp.bitTorrentClient.contentManager_51  TotalBytesUploaded:vector  ETV
attr source ContentManager_TotalBytesUploaded
attr title "Total of Bytes Uploaded, vector"
attr unit B
1889	609732 13145 4211907 224972014 36007.058510350527 36198.242548122489 322 16384 5275648 852017152 3.0012815389491e+15
vector 1752  BasicTopology.peer[15].bitTorrentApp.bitTorrentClient.contentManager_51  TotalBytesDownloaded:vector  ETV
attr source ContentManager_TotalBytesDownloaded
attr title "Total of Bytes Downloaded, vector"
attr unit B
1752	344397 7912 4245712 236348338 36007.078879279543 36304.615879657108 192 16384 3145728 303562752 6.3827508985856e+14
vector 1856  BasicTopology.peer[28].bitTorrentApp.bitTorrentClient.contentManager_51  TotalBytesDownloaded:vector  ETV
attr source ContentManager_TotalBytesDownloaded
attr title "Total of Bytes Downloaded, vector"
attr unit B
1856	538039 8353 4557906 198449473 36007.50844820065 36164.252121039993 203 16384 3325952 339247104 7.5406579754598e+14
vector 1992  BasicTopology.peer[45].bitTorrentApp.bitTorrentClient.contentManager_51  TotalBytesDownloaded:vector  ETV
attr source ContentManager_TotalBytesDownloaded
attr title "Total of Bytes Downloaded, vector"
attr unit B
1992	827950 8296 4731880 212762640 36007.684870052093 36181.997794208534 202 16384 3309568 335921152 7.4300384083968e+14
vector 1976  BasicTopology.peer[43].bitTorrentApp.bitTorrentClient.contentManager_51  TotalBytesDownloaded:vector  ETV
attr source ContentManager_TotalBytesDownloaded
attr title "Total of Bytes Downloaded, vector"
attr unit B
1976	791030 9116 4764856 226597803 36007.719740518024 36200.827092674241 221 16384 3620864 401915904 9.7238354860442e+14
vector 1896  BasicTopology.peer[33].bitTorrentApp.bitTorrentClient.contentManager_51  TotalBytesDownloaded:vector  ETV
attr source ContentManager_TotalBytesDownloaded
attr title "Total of Bytes Downloaded, vector"
attr unit B
1896	623741 8460 4837424 235854948 36007.834977621185 36302.723430521748 206 16384 3375104 349323264 7.879093345321e+14
vector 1936  BasicTopology.peer[38].bitTorrentApp.bitTorrentClient.contentManager_51  TotalBytesDownloaded:vector  ETV
attr source ContentManager_TotalBytesDownloaded
attr title "Total of Bytes Downloaded, vector"
attr unit B
1936	700477 8894 4867110 230788932 36007.881437964436 36209.890793876346 216 16384 3538944 383975424 9.0800869972378e+14
vector 1920  BasicTopology.peer[36].bitTorrentApp.bitTorrentClient.contentManager_51  TotalBytesDownloaded:vector  ETV
attr source ContentManager_TotalBytesDownloaded
attr title "Total of Bytes Downloaded, vector"
attr unit B
1920	669140 8379 5025915 229516391 36008.070733786863 36206.035390968748 204 16384 3342336 342589440 7.6523700748288e+14
vector 1864  BasicTopology.peer[29].bitTorrentApp.bitTorrentClient.contentManager_51  TotalBytesDownloaded:vector  ETV
attr source ContentManager_TotalBytesDownloaded
attr title "Total of Bytes Downloaded, vector"
attr unit B
1864	549956 8207 5191838 232032457 36008.216477334728 36228.404944236849 200 16384 3276800 329318400 7.212055396352e+14
vector 1959  BasicTopology.peer[41].bitTorrentApp.bitTorrentClient.contentManager_51  PiecesDownloaded:vector  ETV
attr source ContentManager_PieceDownloaded
attr title "Pieces Downloaded, vector"
1959	753522 857 5261362 175711903 36008.279050619871 36139.932576357567 24 0 23 276 4324
vector 1961  BasicTopology.peer[41].bitTorrentApp.bitTorrentClient.contentManager_51  TotalBytesUploaded:vector  ETV
attr source ContentManager_TotalBytesUploaded
attr title "Total of Bytes Uploaded, vector"
attr unit B
1961	762280 12222 5314515 195182441 36008.325660250562 36160.386109219066 299 16384 4898816 734822400 2.4038529302528e+15
vector 1744  BasicTopology.peer[14].bitTorrentApp.bitTorrentClient.contentManager_51  TotalBytesDownloaded:vector  ETV
attr source ContentManager_TotalBytesDownloaded
attr title "Total of Bytes Downloaded, vector"
attr unit B
1744	327914 8290 5376503 227622928 36008.374804848223 36202.483397460661 202 16384 3309568 335921152 7.4300384083968e+14
vector 1968  BasicTopology.peer[42].bitTorrentApp.bitTorrentClient.contentManager_51  TotalBytesDownloaded:vector  ETV
attr source ContentManager_TotalBytesDownloaded
attr title "Total of Bytes Downloaded, vector"
attr unit B
1968	775363 7871 5929440 206177148 36008.794392494525 36173.449415803307 192 16384 3145728 303562752 6.3827508985856e+14
vector 2000  BasicTopology.peer[46].bitTorrentApp.bitTorrentClient.contentManager_51  TotalBytesDownloaded:vector  ETV
attr source ContentManager_TotalBytesDownloaded
attr title "Total of Bytes Downloaded, vector"
attr unit B
2000	842669 7911 5971222 207852940 36008.843764245674 36175.775228651206 193 16384 3162112 306724864 6.482740421591e+14
vector 1792  BasicTopology.peer[20].bitTorrentApp.bitTorrentClient.contentManager_51  TotalBytesDownloaded:vector  ETV
attr source ContentManager_TotalBytesDownloaded
attr title "Total of Bytes Downloaded, vector"
attr unit B
1792	417844 7886 6150667 204155907 36009.121235144622 36170.950012872092 192 16384 3145728 303562752 6.3827508985856e+14
vector 1736  BasicTopology.peer[13].bitTorrentApp.bitTorrentClient.contentManager_51  TotalBytesDownloaded:vector  ETV
attr source ContentManager_TotalBytesDownloaded
attr title "Total of Bytes Downloaded, vector"
attr unit B
1736	303530 8432 6212872 215223558 36009.196593530909 36184.763996053819 207 16384 3391488 352714752 7.9941152538624e+14
vector 1975  BasicTopology.peer[43].bitTorrentApp.bitTorrentClient.contentManager_51  PiecesDownloaded:vector  ETV
attr source ContentManager_PieceDownloaded
attr title "Pieces Downloaded, vector"
1975	790161 869 6328918 214492317 36009.326716699425 36183.962050562803 24 0 23 276 4324
vector 1656  BasicTopology.peer[3].bitTorrentApp.bitTorrentClient.contentManager_51  TotalBytesDownloaded:vector  ETV
attr source ContentManager_TotalBytesDownloaded
attr title "Total of Bytes Downloaded, vector"
attr unit B
1656	109143 8006 6335444 216192624 36009.331424297448 36185.995221722962 196 16384 3211264 316309504 6.7889635367322e+14
vector 1977  BasicTopology.peer[43].bitTorrentApp.bitTorrentClient.contentManager_51  TotalBytesUploaded:vector  ETV
attr source ContentManager_TotalBytesUploaded
attr title "Total of Bytes Uploaded, vector"
attr unit B
1977	800146 7187 6398628 214718126 36009.37730435201 36184.206571536568 176 16384 2883584 255197184 4.9198206130586e+14
vector 1919  BasicTopology.peer[36].bitTorrentApp.bitTorrentClient.contentManager_51  PiecesDownloaded:vector  ETV
attr source ContentManager_PieceDownloaded
attr title "Pieces Downloaded, vector"
1919	668276 864 6448348 229516391 36009.413642526348 36206.035390968748 24 0 23 276 4324
vector 1921  BasicTopology.peer[36].bitTorrentApp.bitTorrentClient.contentManager_51  TotalBytesUploaded:vector  ETV
attr source ContentManager_TotalBytesUploaded
attr title "Total of Bytes Uploaded, vector"
attr unit B
1921	677519 8529 6461329 202328027 36009.422383908561 36168.769231923598 209 16384 3424256 359546880 8.2275064610816e+14
vector 1664  BasicTopology.peer[4].bitTorrentApp.bitTorrentClient.contentManager_51  TotalBytesDownloaded:vector  ETV
attr source ContentManager_TotalBytesDownloaded
attr title "Total of Bytes Downloaded, vector"
attr unit B
1664	129229 7871 6597715 199758752 36009.524898379238 36165.806790336513 192 16384 3145728 303562752 6.3827508985856e+14
vector 1760  BasicTopology.peer[16].bitTorrentApp.bitTorrentClient.contentManager_51  TotalBytesDownloaded:vector  ETV
attr source ContentManager_TotalBytesDownloaded
attr title "Total of Bytes Downloaded, vector"
attr unit B
1760	353175 8504 6693300 224307269 36009.59446912176 36197.318819568468 207 16384 3391488 352714752 7.9941152538624e+14
vector 1863  BasicTopology.peer[29].bitTorrentApp.bitTorrentClient.contentManager_51  PiecesDownloaded:vector  ETV
attr source ContentManager_PieceDownloaded
attr title "Pieces Downloaded, vector"
1863	549093 863 6832694 232032457 36009.727382803929 36228.404944236849 24 0 23 276 4324
vector 1865  BasicTopology.peer[29].bitTorrentApp.bitTorrentClient.contentManager_51  TotalBytesUploaded:vector  ETV
attr source ContentManager_TotalBytesUploaded