file 904893 1593887688                                          
version 2
run Test-17-20200526-20:44:27-4405
attr configname Test
attr datetime 20200526-20:44:27
attr experiment "\"Simulation Test\""
attr inifile BasicConfig.ini
attr iterationvars ""
attr iterationvars2 $repetition=17
attr measurement "\"Peers: $peers, Rate: $rate\""
attr network BasicTopology
attr processid 4405
attr repetition 17
attr replication #17
attr resultdir results
attr runnumber 17
attr seedset 17
vector 3  BasicTopology.peer[1].bitTorrentApp.bitTorrentClient  DownloadComplete_Test:vector  ETV
attr source BitTorrentClient_DownloadComplete_Test
attr title "Descargas completas (prueba), vector"
3	42445 65 153 163018501 36001 36128.972378706026 2 36001 36128.972378706 72129.972378706 2601374646.1413
vector 5  BasicTopology.peer[2].bitTorrentApp.bitTorrentClient  DownloadComplete_Test:vector  ETV
attr source BitTorrentClient_DownloadComplete_Test
attr title "Descargas completas (prueba), vector"
5	42510 65 154 156852465 36001 36124.060489931321 2 36001 36124.060489931 72125.060489931 2601019747.2802
vector 7  BasicTopology.peer[3].bitTorrentApp.bitTorrentClient  DownloadComplete_Test:vector  ETV
attr source BitTorrentClient_DownloadComplete_Test
attr title "Descargas completas (prueba), vector"
7	42575 65 155 225325126 36001 36198.437872925512 2 36001 36198.437872926 72199.437872926 2606398905.4401
vector 9  BasicTopology.peer[4].bitTorrentApp.bitTorrentClient  DownloadComplete_Test:vector  ETV
attr source BitTorrentClient_DownloadComplete_Test
attr title "Descargas completas (prueba), vector"
9	42640 65 156 197042587 36001 36161.229400729063 2 36001 36161.229400729 72162.229400729 2603706512.7721
vector 11  BasicTopology.peer[5].bitTorrentApp.bitTorrentClient  DownloadComplete_Test:vector  ETV
attr source BitTorrentClient_DownloadComplete_Test
attr title "Descargas completas (prueba), vector"
11	42705 66 157 227807669 36001 36203.298034709927 2 36001 36203.29803471 72204.29803471 2606750789.59
vector 13  BasicTopology.peer[6].bitTorrentApp.bitTorrentClient  DownloadComplete_Test:vector  ETV
attr source BitTorrentClient_DownloadComplete_Test
attr title "Descargas completas (prueba), vector"
13	42771 67 158 215625221 36001 36183.915583327504 2 36001 36183.915583327 72184.915583327 2605347747.9413
vector 15  BasicTopology.peer[7].bitTorrentApp.bitTorrentClient  DownloadComplete_Test:vector  ETV
attr source BitTorrentClient_DownloadComplete_Test
attr title "Descargas completas (prueba), vector"
15	42838 67 159 234768054 36001 36239.747901129228 2 36001 36239.747901129 72240.747901129 2609391328.9374
vector 17  BasicTopology.peer[8].bitTorrentApp.bitTorrentClient  DownloadComplete_Test:vector  ETV
attr source BitTorrentClient_DownloadComplete_Test
attr title "Descargas completas (prueba), vector"
17	42905 67 160 229877892 36001 36207.564595729173 2 36001 36207.564595729 72208.564595729 2607059734.9539
vector 19  BasicTopology.peer[9].bitTorrentApp.bitTorrentClient  DownloadComplete_Test:vector  ETV
attr source BitTorrentClient_DownloadComplete_Test
attr title "Descargas completas (prueba), vector"
19	42972 67 161 211987215 36001 36179.340528975035 2 36001 36179.340528975 72180.340528975 2605016682.1115
vector 21  BasicTopology.peer[10].bitTorrentApp.bitTorrentClient  DownloadComplete_Test:vector  ETV
attr source BitTorrentClient_DownloadComplete_Test
attr title "Descargas completas (prueba), vector"
21	43039 67 162 106656272 36001 36086.643370640948 2 36001 36086.643370641 72087.643370641 2598317830.7598
vector 23  BasicTopology.peer[11].bitTorrentApp.bitTorrentClient  DownloadComplete_Test:vector  ETV
attr source BitTorrentClient_DownloadComplete_Test
attr title "Descargas completas (prueba), vector"
23	43106 67 163 152707132 36001 36120.708281917256 2 36001 36120.708281917 72121.708281917 2600777567.7873
vector 25  BasicTopology.peer[12].bitTorrentApp.bitTorrentClient  DownloadComplete_Test:vector  ETV
attr source BitTorrentClient_DownloadComplete_Test
attr title "Descargas completas (prueba), vector"
25	43173 67 164 206608448 36001 36172.152211116562 2 36001 36172.152211117 72173.152211117 2604496596.5842
vector 27  BasicTopology.peer[13].bitTorrentApp.bitTorrentClient  DownloadComplete_Test:vector  ETV
attr source BitTorrentClient_DownloadComplete_Test
attr title "Descargas completas (prueba), vector"
27	43240 67 165 230677160 36001 36209.920135904416 2 36001 36209.920135904 72210.920135904 2607230317.2485
vector 29  BasicTopology.peer[14].bitTorrentApp.bitTorrentClient  DownloadComplete_Test:vector  ETV
attr source BitTorrentClient_DownloadComplete_Test
attr title "Descargas completas (prueba), vector"
29	43307 67 166 231880744 36001 36213.736375708769 2 36001 36213.736375709 72214.736375709 2607506703.2893
vector 31  BasicTopology.peer[15].bitTorrentApp.bitTorrentClient  DownloadComplete_Test:vector  ETV
attr source BitTorrentClient_DownloadComplete_Test
attr title "Descargas completas (prueba), vector"
31	43374 67 167 225697530 36001 36199.118016744079 2 36001 36199.118016744 72200.118016744 2606448146.1902
vector 33  BasicTopology.peer[16].bitTorrentApp.bitTorrentClient  DownloadComplete_Test:vector  ETV
attr source BitTorrentClient_DownloadComplete_Test
attr title "Descargas completas (prueba), vector"
33	43441 66 168 226862688 36001 36201.25169296942 2 36001 36201.251692969 72202.251692969 2606602625.1377
vector 35  BasicTopology.peer[17].bitTorrentApp.bitTorrentClient  DownloadComplete_Test:vector  ETV
attr source BitTorrentClient_DownloadComplete_Test
attr title "Descargas completas (prueba), vector"
35	43507 67 169 210459066 36001 36177.504920653271 2 36001 36177.504920653 72178.504920653 2604883863.2839
vector 37  BasicTopology.peer[18].bitTorrentApp.bitTorrentClient  DownloadComplete_Test:vector  ETV
attr source BitTorrentClient_DownloadComplete_Test
attr title "Descargas completas (prueba), vector"
37	43574 67 170 230431719 36001 36209.400489954061 2 36001 36209.400489954 72210.400489954 2607192684.8419
vector 39  BasicTopology.peer[19].bitTorrentApp.bitTorrentClient  DownloadComplete_Test:vector  ETV
attr source BitTorrentClient_DownloadComplete_Test
attr title "Descargas completas (prueba), vector"
39	43641 67 171 221961143 36001 36192.534485435002 2 36001 36192.534485435 72193.534485435 2605971553.4794
vector 41  BasicTopology.peer[20].bitTorrentApp.bitTorrentClient  DownloadComplete_Test:vector  ETV
attr source BitTorrentClient_DownloadComplete_Test
attr title "Descargas completas (prueba), vector"
41	43708 67 172 206516417 36001 36172.061416927818 2 36001 36172.061416928 72173.061416928 2604490028.15
vector 43  BasicTopology.peer[21].bitTorrentApp.bitTorrentClient  DownloadComplete_Test:vector  ETV
attr source BitTorrentClient_DownloadComplete_Test
attr title "Descargas completas (prueba), vector"
43	43775 67 173 172474936 36001 36136.983523952228 2 36001 36136.983523952 72137.983523952 2601953579.2104
vector 45  BasicTopology.peer[22].bitTorrentApp.bitTorrentClient  DownloadComplete_Test:vector  ETV
attr source BitTorrentClient_DownloadComplete_Test
attr title "Descargas completas (prueba), vector"
45	43842 67 174 233988772 36001 36236.472241536074 2 36001 36236.472241536 72237.472241536 2609153921.5116
vector 47  BasicTopology.peer[23].bitTorrentApp.bitTorrentClient  DownloadComplete_Test:vector  ETV
attr source BitTorrentClient_DownloadComplete_Test
attr title "Descargas completas (prueba), vector"
47	43909 67 175 234986729 36001 36240.956849855723 2 36001 36240.956849856 72241.956849856 2609478954.3931
vector 49  BasicTopology.peer[24].bitTorrentApp.bitTorrentClient  DownloadComplete_Test:vector  ETV
attr source BitTorrentClient_DownloadComplete_Test
attr title "Descargas completas (prueba), vector"
49	43976 67 176 215990657 36001 36184.409522172209 2 36001 36184.409522172 72185.409522172 2605383493.4683
vector 51  BasicTopology.peer[25].bitTorrentApp.bitTorrentClient  DownloadComplete_Test:vector  ETV
attr source BitTorrentClient_DownloadComplete_Test
attr title "Descargas completas (prueba), vector"
51	44043 67 177 234740747 36001 36238.992710565867 2 36001 36238.992710566 72239.992710566 2609336593.6765
vector 53  BasicTopology.peer[26].bitTorrentApp.bitTorrentClient  DownloadComplete_Test:vector  ETV
attr source BitTorrentClient_DownloadComplete_Test
attr title "Descargas completas (prueba), vector"
53	44110 67 178 224972426 36001 36197.770425794314 2 36001 36197.770425794 72198.770425794 2606350584.7985
vector 55  BasicTopology.peer[27].bitTorrentApp.bitTorrentClient  DownloadComplete_Test:vector  ETV
attr source BitTorrentClient_DownloadComplete_Test
attr title "Descargas completas (prueba), vector"
55	44177 66 179 217418371 36001 36186.20138107099 2 36001 36186.201381071 72187.201381071 2605513171.3914
vector 57  BasicTopology.peer[28].bitTorrentApp.bitTorrentClient  DownloadComplete_Test:vector  ETV
attr source BitTorrentClient_DownloadComplete_Test
attr title "Descargas completas (prueba), vector"
57	44243 67 180 229741380 36001 36207.266066621248 2 36001 36207.266066621 72208.266066621 2607038117.0191
vector 59  BasicTopology.peer[29].bitTorrentApp.bitTorrentClient  DownloadComplete_Test:vector  ETV
attr source BitTorrentClient_DownloadComplete_Test
attr title "Descargas completas (prueba), vector"
59	44310 67 181 222241214 36001 36192.966291285786 2 36001 36192.966291286 72193.966291286 2606002809.9622
vector 61  BasicTopology.peer[30].bitTorrentApp.bitTorrentClient  DownloadComplete_Test:vector  ETV
attr source BitTorrentClient_DownloadComplete_Test
attr title "Descargas completas (prueba), vector"
61	44377 67 182 215315371 36001 36183.501787922358 2 36001 36183.501787922 72184.501787922 2605317802.6366
vector 63  BasicTopology.peer[31].bitTorrentApp.bitTorrentClient  DownloadComplete_Test:vector  ETV
attr source BitTorrentClient_DownloadComplete_Test
attr title "Descargas completas (prueba), vector"
63	44444 66 183 210391068 36001 36177.417722639873 2 36001 36177.41772264 72178.41772264 2604877554.0784
vector 65  BasicTopology.peer[32].bitTorrentApp.bitTorrentClient  DownloadComplete_Test:vector  ETV
attr source BitTorrentClient_DownloadComplete_Test
attr title "Descargas completas (prueba), vector"
65	44510 67 184 228012214 36001 36203.836194077924 2 36001 36203.836194078 72204.836194078 2606789756.1676
vector 67  BasicTopology.peer[33].bitTorrentApp.bitTorrentClient  DownloadComplete_Test:vector  ETV
attr source BitTorrentClient_DownloadComplete_Test
attr title "Descargas completas (prueba), vector"
67	44577 66 185 230147835 36001 36208.35012585074 2 36001 36208.350125851 72209.350125851 2607116619.8362
vector 69  BasicTopology.peer[34].bitTorrentApp.bitTorrentClient  DownloadComplete_Test:vector  ETV
attr source BitTorrentClient_DownloadComplete_Test
attr title "Descargas completas (prueba), vector"
69	44643 67 186 222718323 36001 36193.791724615402 2 36001 36193.791724615 72194.791724615 2606062560.4048
vector 71  BasicTopology.peer[35].bitTorrentApp.bitTorrentClient  DownloadComplete_Test:vector  ETV
attr source BitTorrentClient_DownloadComplete_Test
attr title "Descargas completas (prueba), vector"
71	44710 67 187 219235308 36001 36188.607250873687 2 36001 36188.607250874 72189.607250874 2605687295.758
vector 73  BasicTopology.peer[36].bitTorrentApp.bitTorrentClient  DownloadComplete_Test:vector  ETV
attr source BitTorrentClient_DownloadComplete_Test
attr title "Descargas completas (prueba), vector"
73	44777 67 188 224304451 36001 36196.353479561283 2 36001 36196.353479561 72197.353479561 2606248006.2173
vector 75  BasicTopology.peer[37].bitTorrentApp.bitTorrentClient  DownloadComplete_Test:vector  ETV
attr source BitTorrentClient_DownloadComplete_Test
attr title "Descargas completas (prueba), vector"
75	44844 67 189 235097509 36001 36241.171148482897 2 36001 36241.171148483 72242.171148483 2609494487.2136
vector 77  BasicTopology.peer[38].bitTorrentApp.bitTorrentClient  DownloadComplete_Test:vector  ETV
attr source BitTorrentClient_DownloadComplete_Test
attr title "Descargas completas (prueba), vector"
77	44911 67 190 231714048 36001 36213.114600803057 2 36001 36213.114600803 72214.114600803 2607461670.0909
vector 79  BasicTopology.peer[39].bitTorrentApp.bitTorrentClient  DownloadComplete_Test:vector  ETV
attr source BitTorrentClient_DownloadComplete_Test
attr title "Descargas completas (prueba), vector"
79	44978 67 191 215349968 36001 36183.524947360698 2 36001 36183.524947361 72184.524947361 2605319478.6163
vector 81  BasicTopology.peer[40].bitTorrentApp.bitTorrentClient  DownloadComplete_Test:vector  ETV
attr source BitTorrentClient_DownloadComplete_Test
attr title "Descargas completas (prueba), vector"
81	45045 67 192 232893984 36001 36216.615216242319 2 36001 36216.615216242 72217.615216242 2607715218.7213
vector 83  BasicTopology.peer[41].bitTorrentApp.bitTorrentClient  DownloadComplete_Test:vector  ETV
attr source BitTorrentClient_DownloadComplete_Test
attr title "Descargas completas (prueba), vector"
83	45112 67 193 235229423 36001 36241.717591591223 2 36001 36241.717591591 72242.717591591 2609534094.9886
vector 85  BasicTopology.peer[42].bitTorrentApp.bitTorrentClient  DownloadComplete_Test:vector  ETV
attr source BitTorrentClient_DownloadComplete_Test
attr title "Descargas completas (prueba), vector"
85	45179 65 194 197263890 36001 36161.4884811508 2 36001 36161.488481151 72162.488481151 2603725250.1724
vector 87  BasicTopology.peer[43].bitTorrentApp.bitTorrentClient  DownloadComplete_Test:vector  ETV
attr source BitTorrentClient_DownloadComplete_Test
attr title "Descargas completas (prueba), vector"
87	45244 67 195 235705696 36001 36244.017274430577 2 36001 36244.017274431 72245.017274431 2609700789.1893
vector 89  BasicTopology.peer[44].bitTorrentApp.bitTorrentClient  DownloadComplete_Test:vector  ETV
attr source BitTorrentClient_DownloadComplete_Test
attr title "Descargas completas (prueba), vector"
89	45311 67 196 224568881 36001 36196.781022863758 2 36001 36196.781022864 72197.781022864 2606278957.4172
vector 91  BasicTopology.peer[45].bitTorrentApp.bitTorrentClient  DownloadComplete_Test:vector  ETV
attr source BitTorrentClient_DownloadComplete_Test
attr title "Descargas completas (prueba), vector"
91	45378 67 197 220801846 36001 36190.689981074035 2 36001 36190.689981074 72191.689981074 2605838042.3062
vector 93  BasicTopology.peer[46].bitTorrentApp.bitTorrentClient  DownloadComplete_Test:vector  ETV
attr source BitTorrentClient_DownloadComplete_Test
attr title "Descargas completas (prueba), vector"
93	45445 66 198 230320869 36001 36209.25814761645 2 36001 36209.258147616 72210.258147616 2607182376.6007
vector 95  BasicTopology.peer[47].bitTorrentApp.bitTorrentClient  DownloadComplete_Test:vector  ETV
attr source BitTorrentClient_DownloadComplete_Test
attr title "Descargas completas (prueba), vector"
95	45511 67 199 236021839 36001 36245.409576375697 2 36001 36245.409576376 72246.409576376 2609801716.3592
vector 97  BasicTopology.peer[48].bitTorrentApp.bitTorrentClient  DownloadComplete_Test:vector  ETV
attr source BitTorrentClient_DownloadComplete_Test
attr title "Descargas completas (prueba), vector"
97	45578 67 200 205811524 36001 36171.099021982771 2 36001 36171.099021983 72172.099021983 2604420405.4581
vector 99  BasicTopology.peer[49].bitTorrentApp.bitTorrentClient  DownloadComplete_Test:vector  ETV
attr source BitTorrentClient_DownloadComplete_Test
attr title "Descargas completas (prueba), vector"
99	45645 67 201 217568389 36001 36186.397548806455 2 36001 36186.397548806 72187.397548806 2605527368.5602
vector 1633  BasicTopology.peer[0].bitTorrentApp.bitTorrentClient.contentManager_51  TotalBytesUploaded:vector  ETV
attr source ContentManager_TotalBytesUploaded
attr title "Total of Bytes Uploaded, vector"
attr unit B
1633	45712 16792 748921 215854843 36001.632779530899 36184.225774271442 413 16384 6766592 1400684544 6.3262234918257e+15
vector 1800  BasicTopology.peer[21].bitTorrentApp.bitTorrentClient.contentManager_51  TotalBytesDownloaded:vector  ETV
attr source ContentManager_TotalBytesDownloaded
attr title "Total of Bytes Downloaded, vector"
attr unit B
1800	423921 7815 841438 172474936 36001.690161147953 36136.983523952228 192 16384 3145728 303562752 6.3827508985856e+14
vector 1856  BasicTopology.peer[28].bitTorrentApp.bitTorrentClient.contentManager_51  TotalBytesDownloaded:vector  ETV
attr source ContentManager_TotalBytesDownloaded
attr title "Total of Bytes Downloaded, vector"
attr unit B
1856	545669 7913 1691758 229741380 36002.774569668689 36207.266066621248 192 16384 3145728 303562752 6.3827508985856e+14
vector 1799  BasicTopology.peer[21].bitTorrentApp.bitTorrentClient.contentManager_51  PiecesDownloaded:vector  ETV
attr source ContentManager_PieceDownloaded
attr title "Pieces Downloaded, vector"
1799	423064 857 1802050 172474936 36002.955410508941 36136.983523952228 24 0 23 276 4324
vector 1801  BasicTopology.peer[21].bitTorrentApp.bitTorrentClient.contentManager_51  TotalBytesUploaded:vector  ETV
attr source ContentManager_TotalBytesUploaded
attr title "Total of Bytes Uploaded, vector"
attr unit B
1801	431736 22146 1811509 188573181 36002.967939986279 36152.330705458937 541 16384 8863744 2402074624 1.4207368220901e+16
vector 1952  BasicTopology.peer[40].bitTorrentApp.bitTorrentClient.contentManager_51  TotalBytesDownloaded:vector  ETV
attr source ContentManager_TotalBytesDownloaded
attr title "Total of Bytes Downloaded, vector"
attr unit B
1952	732946 7803 2004661 232893984 36003.101900219066 36216.615216242319 192 16384 3145728 303562752 6.3827508985856e+14
vector 1712  BasicTopology.peer[10].bitTorrentApp.bitTorrentClient.contentManager_51  TotalBytesDownloaded:vector  ETV
attr source ContentManager_TotalBytesDownloaded
attr title "Total of Bytes Downloaded, vector"
attr unit B
1712	229055 7754 2432299 106656272 36004.121032294878 36086.643370640948 192 16384 3145728 303562752 6.3827508985856e+14
vector 1951  BasicTopology.peer[40].bitTorrentApp.bitTorrentClient.contentManager_51  PiecesDownloaded:vector  ETV
attr source ContentManager_PieceDownloaded
attr title "Pieces Downloaded, vector"
1951	732092 854 2638972 232893984 36004.338826594408 36216.615216242319 24 0 23 276 4324
vector 1816  BasicTopology.peer[23].bitTorrentApp.bitTorrentClient.contentManager_51  TotalBytesDownloaded:vector  ETV
attr source ContentManager_TotalBytesDownloaded
attr title "Total of Bytes Downloaded, vector"
attr unit B
1816	473894 7909 2653540 234986729 36004.376814849695 36240.956849855723 192 16384 3145728 303562752 6.3827508985856e+14
vector 1953  BasicTopology.peer[40].bitTorrentApp.bitTorrentClient.contentManager_51  TotalBytesUploaded:vector  ETV
attr source ContentManager_TotalBytesUploaded
attr title "Total of Bytes Uploaded, vector"
attr unit B
1953	740749 11847 2660338 231353608 36004.393382387685 36212.336052397657 290 16384 4751360 691322880 2.1935914640998e+15
vector 2008  BasicTopology.peer[47].bitTorrentApp.bitTorrentClient.contentManager_51  TotalBytesDownloaded:vector  ETV
attr source ContentManager_TotalBytesDownloaded
attr title "Total of Bytes Downloaded, vector"
attr unit B
2008	861345 7880 3129559 236021839 36004.769319464861 36245.409576375697 192 16384 3145728 303562752 6.3827508985856e+14
vector 1960  BasicTopology.peer[41].bitTorrentApp.bitTorrentClient.contentManager_51  TotalBytesDownloaded:vector  ETV
attr source ContentManager_TotalBytesDownloaded
attr title "Total of Bytes Downloaded, vector"
attr unit B
1960	753459 7853 3384018 235229423 36005.07351428841 36241.717591591223 192 16384 3145728 303562752 6.3827508985856e+14
vector 1959  BasicTopology.peer[41].bitTorrentApp.bitTorrentClient.contentManager_51  PiecesDownloaded:vector  ETV
attr source ContentManager_PieceDownloaded
attr title "Pieces Downloaded, vector"
1959	752596 863 4088631 235229423 36006.380644166623 36241.717591591223 24 0 23 276 4324
vector 1961  BasicTopology.peer[41].bitTorrentApp.bitTorrentClient.contentManager_51  TotalBytesUploaded:vector  ETV
attr source ContentManager_TotalBytesUploaded
attr title "Total of Bytes Uploaded, vector"
attr unit B
1961	761312 10455 4131557 235587868 36006.420870351288 36242.798893553384 255 16384 4177920 534773760 1.4924152360141e+15
vector 1888  BasicTopology.peer[32].bitTorrentApp.bitTorrentClient.contentManager_51  TotalBytesDownloaded:vector  ETV
attr source ContentManager_TotalBytesDownloaded
attr title "Total of Bytes Downloaded, vector"
attr unit B
1888	624679 8940 4191567 228012214 36006.494088206634 36203.836194077924 217 16384 3555328 387530752 9.2064905691136e+14
vector 1711  BasicTopology.peer[10].bitTorrentApp.bitTorrentClient.contentManager_51  PiecesDownloaded:vector  ETV
attr source ContentManager_PieceDownloaded
attr title "Pieces Downloaded, vector"
1711	228207 848 4215362 106656272 36006.531594759713 36086.643370640948 24 0 23 276 4324
vector 1713  BasicTopology.peer[10].bitTorrentApp.bitTorrentClient.contentManager_51  TotalBytesUploaded:vector  ETV
attr source ContentManager_TotalBytesUploaded
attr title "Total of Bytes Uploaded, vector"
attr unit B
1713	236809 15124 4272011 213723582 36006.627621631329 36181.516200595008 372 16384 6094848 1136689152 4.6248395748147e+15
vector 1815  BasicTopology.peer[23].bitTorrentApp.bitTorrentClient.contentManager_51  PiecesDownloaded:vector  ETV
attr source ContentManager_PieceDownloaded
attr title "Pieces Downloaded, vector"
1815	473025 869 4289101 234986729 36006.668340337415 36240.956849855723 24 0 23 276 4324
vector 1817  BasicTopology.peer[23].bitTorrentApp.bitTorrentClient.contentManager_51  TotalBytesUploaded:vector  ETV
attr source ContentManager_TotalBytesUploaded
attr title "Total of Bytes Uploaded, vector"
attr unit B
1817	481803 4351 4297710 235324719 36006.684044658993 36242.043580393763 108 16384 1769472 96436224 1.1428746913382e+14
vector 1672  BasicTopology.peer[5].bitTorrentApp.bitTorrentClient.contentManager_51  TotalBytesDownloaded:vector  ETV
attr source ContentManager_TotalBytesDownloaded
attr title "Total of Bytes Downloaded, vector"
attr unit B
1672	139082 8104 4332078 227807669 36006.738050728772 36203.298034709927 197 16384 3227648 319537152 6.8931406528512e+14
vector 1640  BasicTopology.peer[1].bitTorrentApp.bitTorrentClient.contentManager_51  TotalBytesDownloaded:vector  ETV
attr source ContentManager_TotalBytesDownloaded
attr title "Total of Bytes Downloaded, vector"
attr unit B
1640	63361 7803 4381013 163018501 36006.842790683407 36128.972378706026 192 16384 3145728 303562752 6.3827508985856e+14
vector 1736  BasicTopology.peer[13].bitTorrentApp.bitTorrentClient.contentManager_51  TotalBytesDownloaded:vector  ETV
attr source ContentManager_TotalBytesDownloaded
attr title "Total of Bytes Downloaded, vector"
attr unit B
1736	293388 7883 4384656 230677160 36006.853790677496 36209.920135904416 192 16384 3145728 303562752 6.3827508985856e+14
vector 1832  BasicTopology.peer[25].bitTorrentApp.bitTorrentClient.contentManager_51  TotalBytesDownloaded:vector  ETV
attr source ContentManager_TotalBytesDownloaded
attr title "Total of Bytes Downloaded, vector"
attr unit B
1832	499943 8467 4652469 234740747 36007.205130582307 36238.992710565867 206 16384 3375104 349323264 7.879093345321e+14
vector 2007  BasicTopology.peer[47].bitTorrentApp.bitTorrentClient.contentManager_51  PiecesDownloaded:vector  ETV
attr source ContentManager_PieceDownloaded
attr title "Pieces Downloaded, vector"
2007	860477 868 4712678 236021839 36007.322023934601 36245.409576375697 24 0 23 276 4324
vector 2009  BasicTopology.peer[47].bitTorrentApp.bitTorrentClient.contentManager_51  TotalBytesUploaded:vector  ETV
attr source ContentManager_TotalBytesUploaded
attr title "Total of Bytes Uploaded, vector"
attr unit B
2009	869225 8303 4759195 138151040 36007.401926397151 36109.904646915472 204 16384 3342336 342589440 7.6523700748288e+14
vector 1664  BasicTopology.peer[4].bitTorrentApp.bitTorrentClient.contentManager_51  TotalBytesDownloaded:vector  ETV
attr source ContentManager_TotalBytesDownloaded
attr title "Total of Bytes Downloaded, vector"
attr unit B
1664	120092 7864 4852535 197042587 36007.55833741177 36161.229400729063 192 16384 3145728 303562752 6.3827508985856e+14
vector 1887  BasicTopology.peer[32].bitTorrentApp.bitTorrentClient.contentManager_51  PiecesDownloaded:vector  ETV
attr source ContentManager_PieceDownloaded
attr title "Pieces Downloaded, vector"
1887	623808 871 5067208 228012214 36007.749639537017 36203.836194077924 24 0 23 276 4324
vector 1889  BasicTopology.peer[32].bitTorrentApp.bitTorrentClient.contentManager_51  TotalBytesUploaded:vector  ETV
attr source ContentManager_TotalBytesUploaded
attr title "Total of Bytes Uploaded, vector"
attr unit B
1889	633619 5896 5083732 224157813 36007.768925607958 36196.047725515731 144 16384 2359296 171048960 2.6997090680832e+14
vector 1984  BasicTopology.peer[44].bitTorrentApp.bitTorrentClient.contentManager_51  TotalBytesDownloaded:vector  ETV
attr source ContentManager_TotalBytesDownloaded
attr title "Total of Bytes Downloaded, vector"
attr unit B
1984	813119 9075 5230273 224568881 36007.934597199404 36196.781022863758 220 16384 3604480 398295040 9.5927289249792e+14
vector 1720  BasicTopology.peer[11].bitTorrentApp.bitTorrentClient.contentManager_51  TotalBytesDownloaded:vector  ETV
attr source ContentManager_TotalBytesDownloaded
attr title "Total of Bytes Downloaded, vector"
attr unit B
1720	252793 7812 5292823 152707132 36008.051032033545 36120.708281917256 192 16384 3145728 303562752 6.3827508985856e+14
vector 1688  BasicTopology.peer[7].bitTorrentApp.bitTorrentClient.contentManager_51  TotalBytesDownloaded:vector  ETV
attr source ContentManager_TotalBytesDownloaded
attr title "Total of Bytes Downloaded, vector"
attr unit B
1688	177962 7897 5466526 234768054 36008.371989137406 36239.747901129228 192 16384 3145728 303562752 6.3827508985856e+14
vector 1728  BasicTopology.peer[12].bitTorrentApp.bitTorrentClient.contentManager_51  TotalBytesDownloaded:vector  ETV
attr source ContentManager_TotalBytesDownloaded
attr title "Total of Bytes Downloaded, vector"
attr unit B
1728	276679 7879 5480478 206608448 36008.399490574544 36172.152211116562 192 16384 3145728 303562752 6.3827508985856e+14
vector 1976  BasicTopology.peer[43].bitTorrentApp.bitTorrentClient.contentManager_51  TotalBytesDownloaded:vector  ETV
attr source ContentManager_TotalBytesDownloaded
attr title "Total of Bytes Downloaded, vector"
attr unit B
1976	791455 8068 5759556 235705696 36008.612775286919 36244.017274430577 197 16384 3227648 319537152 6.8931406528512e+14
vector 1840  BasicTopology.peer[26].bitTorrentApp.bitTorrentClient.contentManager_51  TotalBytesDownloaded:vector  ETV
attr source ContentManager_TotalBytesDownloaded
attr title "Total of Bytes Downloaded, vector"
attr unit B
1840	516668 7877 5825518 224972426 36008.669193518792 36197.770425794314 192 16384 3145728 303562752 6.3827508985856e+14
vector 1855  BasicTopology.peer[28].bitTorrentApp.bitTorrentClient.contentManager_51  PiecesDownloaded:vector  ETV
attr source ContentManager_PieceDownloaded
attr title "Pieces Downloaded, vector"
1855	544802 867 5850266 229741380 36008.690112062635 36207.266066621248 24 0 23 276 4324
vector 1857  BasicTopology.peer[28].bitTorrentApp.bitTorrentClient.contentManager_51  TotalBytesUploaded:vector  ETV
attr source ContentManager_TotalBytesUploaded
attr title "Total of Bytes Uploaded, vector"
attr unit B
1857	553582 7991 5937713 229781898 36008.767717698844 36207.315836631494 196 16384 3211264 316309504 6.7889635367322e+14
vector 1975  BasicTopology.peer[43].bitTorrentApp.bitTorrentClient.contentManager_51  PiecesDownloaded:vector  ETV
attr source ContentManager_PieceDownloaded
attr title "Pieces Downloaded, vector"
1975	790592 863 6021208 235705696 36008.857936614721 36244.017274430577 24 0 23 276 4324
vector 1977  BasicTopology.peer[43].bitTorrentApp.bitTorrentClient.contentManager_51  TotalBytesUploaded:vector  ETV
attr source ContentManager_TotalBytesUploaded
attr title "Total of Bytes Uploaded, vector"
attr unit B
1977	799523 12727 6053458 161595677 36008.891161070501 36127.798959613863 312 16384 5111808 799997952 2.73065967616e+15
vector 1760  BasicTopology.peer[16].bitTorrentApp.bitTorrentClient.contentManager_51  TotalBytesDownloaded:vector  ETV
attr source ContentManager_TotalBytesDownloaded
attr title "Total of Bytes Downloaded, vector"
attr unit B
1760	345958 8811 6126980 227345467 36008.964862755674 36202.532352210683 214 16384 3506176 376913920 8.8307614613504e+14
vector 1671  BasicTopology.peer[5].bitTorrentApp.bitTorrentClient.contentManager_51  PiecesDownloaded:vector  ETV
attr source ContentManager_PieceDownloaded
attr title "Pieces Downloaded, vector"
1671	138215 867 6239029 227807669 36009.053870105425 36203.298034709927 24 0 23 276 4324
vector 1904  BasicTopology.peer[34].bitTorrentApp.bitTorrentClient.contentManager_51  TotalBytesDownloaded:vector  ETV
attr source ContentManager_TotalBytesDownloaded
attr title "Total of Bytes Downloaded, vector"
attr unit B
1904	657125 8153 6255294 222718323 36009.064854831988 36193.791724615402 198 16384 3244032 322781184 6.9983780890214e+14
vector 1673  BasicTopology.peer[5].bitTorrentApp.bitTorrentClient.contentManager_51  TotalBytesUploaded:vector  ETV
attr source ContentManager_TotalBytesUploaded
attr title "Total of Bytes Uploaded, vector"
attr unit B
1673	147186 11834 6261188 213877049 36009.068839520813 36181.666766797636 288 16384 4718592 681836544 2.1485960445297e+15
vector 1680  BasicTopology.peer[6].bitTorrentApp.bitTorrentClient.contentManager_51  TotalBytesDownloaded:vector  ETV
attr source ContentManager_TotalBytesDownloaded
attr title "Total of Bytes Downloaded, vector"
attr unit B
1680	159887 8735 6298846 229618924 36009.105069011533 36207.077216596464 212 16384 3473408 369917952 8.586042277888e+14
vector 1768  BasicTopology.peer[17].bitTorrentApp.bitTorrentClient.contentManager_51  TotalBytesDownloaded:vector  ETV
attr source ContentManager_TotalBytesDownloaded
attr title "Total of Bytes Downloaded, vector"