file 901695 1593887688                                          
version 2
run Test-14-20200526-20:43:41-4343
attr configname Test
attr datetime 20200526-20:43:41
attr experiment "\"Simulation Test\""
attr inifile BasicConfig.ini
attr iterationvars ""
attr iterationvars2 $repetition=14
attr measurement "\"Peers: $peers, Rate: $rate\""
attr network BasicTopology
attr processid 4343
attr repetition 14
attr replication #14
attr resultdir results
attr runnumber 14
attr seedset 14
vector 3  BasicTopology.peer[1].bitTorrentApp.bitTorrentClient  DownloadComplete_Test:vector  ETV
attr source BitTorrentClient_DownloadComplete_Test
attr title "Descargas completas (prueba), vector"
3	42445 63 153 57984361 36001 36053.637297110359 2 36001 36053.63729711 72054.63729711 2595936763.3516
vector 5  BasicTopology.peer[2].bitTorrentApp.bitTorrentClient  DownloadComplete_Test:vector  ETV
attr source BitTorrentClient_DownloadComplete_Test
attr title "Descargas completas (prueba), vector"
5	42508 64 154 81302451 36001 36070.333800467307 2 36001 36070.333800467 72071.333800467 2597140981.4771
vector 7  BasicTopology.peer[3].bitTorrentApp.bitTorrentClient  DownloadComplete_Test:vector  ETV
attr source BitTorrentClient_DownloadComplete_Test
attr title "Descargas completas (prueba), vector"
7	42572 65 155 233695687 36001 36231.508403107764 2 36001 36231.508403108 72232.508403108 2608794202.1645
vector 9  BasicTopology.peer[4].bitTorrentApp.bitTorrentClient  DownloadComplete_Test:vector  ETV
attr source BitTorrentClient_DownloadComplete_Test
attr title "Descargas completas (prueba), vector"
9	42637 65 156 227994986 36001 36207.730004843391 2 36001 36207.730004843 72208.730004843 2607071713.1036
vector 11  BasicTopology.peer[5].bitTorrentApp.bitTorrentClient  DownloadComplete_Test:vector  ETV
attr source BitTorrentClient_DownloadComplete_Test
attr title "Descargas completas (prueba), vector"
11	42702 67 157 214150821 36001 36186.680021056803 2 36001 36186.680021057 72187.680021057 2605547811.9464
vector 13  BasicTopology.peer[6].bitTorrentApp.bitTorrentClient  DownloadComplete_Test:vector  ETV
attr source BitTorrentClient_DownloadComplete_Test
attr title "Descargas completas (prueba), vector"
13	42769 67 158 225891012 36001 36203.816068778608 2 36001 36203.816068779 72204.816068779 2606788298.942
vector 15  BasicTopology.peer[7].bitTorrentApp.bitTorrentClient  DownloadComplete_Test:vector  ETV
attr source BitTorrentClient_DownloadComplete_Test
attr title "Descargas completas (prueba), vector"
15	42836 67 159 218561443 36001 36192.126358004107 2 36001 36192.126358004 72193.126358004 2605942011.3137
vector 17  BasicTopology.peer[8].bitTorrentApp.bitTorrentClient  DownloadComplete_Test:vector  ETV
attr source BitTorrentClient_DownloadComplete_Test
attr title "Descargas completas (prueba), vector"
17	42903 67 160 197903679 36001 36168.044892464499 2 36001 36168.044892464 72169.044892464 2604199472.3433
vector 19  BasicTopology.peer[9].bitTorrentApp.bitTorrentClient  DownloadComplete_Test:vector  ETV
attr source BitTorrentClient_DownloadComplete_Test
attr title "Descargas completas (prueba), vector"
19	42970 67 161 186992192 36001 36156.368358387856 2 36001 36156.368358388 72157.368358388 2603354973.8674
vector 21  BasicTopology.peer[10].bitTorrentApp.bitTorrentClient  DownloadComplete_Test:vector  ETV
attr source BitTorrentClient_DownloadComplete_Test
attr title "Descargas completas (prueba), vector"
21	43037 67 162 195855559 36001 36165.662115362501 2 36001 36165.662115363 72166.662115363 2604027117.2426
vector 23  BasicTopology.peer[11].bitTorrentApp.bitTorrentClient  DownloadComplete_Test:vector  ETV
attr source BitTorrentClient_DownloadComplete_Test
attr title "Descargas completas (prueba), vector"
23	43104 67 163 167706688 36001 36137.936753168079 2 36001 36137.936753168 72138.936753168 2602022473.776
vector 25  BasicTopology.peer[12].bitTorrentApp.bitTorrentClient  DownloadComplete_Test:vector  ETV
attr source BitTorrentClient_DownloadComplete_Test
attr title "Descargas completas (prueba), vector"
25	43171 67 164 236567981 36001 36302.568854085605 2 36001 36302.568854086 72303.568854086 2613948506.4057
vector 27  BasicTopology.peer[13].bitTorrentApp.bitTorrentClient  DownloadComplete_Test:vector  ETV
attr source BitTorrentClient_DownloadComplete_Test
attr title "Descargas completas (prueba), vector"
27	43238 67 165 212277051 36001 36183.970550521886 2 36001 36183.970550522 72184.970550522 2605351725.801
vector 29  BasicTopology.peer[14].bitTorrentApp.bitTorrentClient  DownloadComplete_Test:vector  ETV
attr source BitTorrentClient_DownloadComplete_Test
attr title "Descargas completas (prueba), vector"
29	43305 67 166 232307892 36001 36220.175324873961 2 36001 36220.175324874 72221.175324874 2607973101.5646
vector 31  BasicTopology.peer[15].bitTorrentApp.bitTorrentClient  DownloadComplete_Test:vector  ETV
attr source BitTorrentClient_DownloadComplete_Test
attr title "Descargas completas (prueba), vector"
31	43372 67 167 220399469 36001 36194.735464215842 2 36001 36194.735464216 72195.735464216 2606130876.3246
vector 33  BasicTopology.peer[16].bitTorrentApp.bitTorrentClient  DownloadComplete_Test:vector  ETV
attr source BitTorrentClient_DownloadComplete_Test
attr title "Descargas completas (prueba), vector"
33	43439 66 168 229096941 36001 36209.96819609564 2 36001 36209.968196096 72210.968196096 2607233797.7623
vector 35  BasicTopology.peer[17].bitTorrentApp.bitTorrentClient  DownloadComplete_Test:vector  ETV
attr source BitTorrentClient_DownloadComplete_Test
attr title "Descargas completas (prueba), vector"
35	43505 67 169 219149399 36001 36193.025130720735 2 36001 36193.025130721 72194.025130721 2606007069.113
vector 37  BasicTopology.peer[18].bitTorrentApp.bitTorrentClient  DownloadComplete_Test:vector  ETV
attr source BitTorrentClient_DownloadComplete_Test
attr title "Descargas completas (prueba), vector"
37	43572 67 170 217216614 36001 36190.395445839234 2 36001 36190.395445839 72191.395445839 2605816723.5262
vector 39  BasicTopology.peer[19].bitTorrentApp.bitTorrentClient  DownloadComplete_Test:vector  ETV
attr source BitTorrentClient_DownloadComplete_Test
attr title "Descargas completas (prueba), vector"
39	43639 66 171 206466805 36001 36177.17534671706 2 36001 36177.175346717 72178.175346717 2604860017.0671
vector 41  BasicTopology.peer[20].bitTorrentApp.bitTorrentClient  DownloadComplete_Test:vector  ETV
attr source BitTorrentClient_DownloadComplete_Test
attr title "Descargas completas (prueba), vector"
41	43705 67 172 115152097 36001 36095.027761312562 2 36001 36095.027761313 72096.027761313 2598923030.09
vector 43  BasicTopology.peer[21].bitTorrentApp.bitTorrentClient  DownloadComplete_Test:vector  ETV
attr source BitTorrentClient_DownloadComplete_Test
attr title "Descargas completas (prueba), vector"
43	43772 67 173 217341445 36001 36190.503542051628 2 36001 36190.503542052 72191.503542052 2605824547.6273
vector 45  BasicTopology.peer[22].bitTorrentApp.bitTorrentClient  DownloadComplete_Test:vector  ETV
attr source BitTorrentClient_DownloadComplete_Test
attr title "Descargas completas (prueba), vector"
45	43839 67 174 223209275 36001 36198.899875567842 2 36001 36198.899875568 72199.899875568 2606432353.2014
vector 47  BasicTopology.peer[23].bitTorrentApp.bitTorrentClient  DownloadComplete_Test:vector  ETV
attr source BitTorrentClient_DownloadComplete_Test
attr title "Descargas completas (prueba), vector"
47	43906 65 175 224875694 36001 36201.515214899929 2 36001 36201.5152149 72202.5152149 2606621704.8546
vector 49  BasicTopology.peer[24].bitTorrentApp.bitTorrentClient  DownloadComplete_Test:vector  ETV
attr source BitTorrentClient_DownloadComplete_Test
attr title "Descargas completas (prueba), vector"
49	43971 67 176 212586665 36001 36184.485565104033 2 36001 36184.485565104 72185.485565104 2605388996.6112
vector 51  BasicTopology.peer[25].bitTorrentApp.bitTorrentClient  DownloadComplete_Test:vector  ETV
attr source BitTorrentClient_DownloadComplete_Test
attr title "Descargas completas (prueba), vector"
51	44038 66 177 224438938 36001 36200.724437760451 2 36001 36200.72443776 72201.72443776 2606564450.8186
vector 53  BasicTopology.peer[26].bitTorrentApp.bitTorrentClient  DownloadComplete_Test:vector  ETV
attr source BitTorrentClient_DownloadComplete_Test
attr title "Descargas completas (prueba), vector"
53	44104 67 178 228517732 36001 36208.650793458156 2 36001 36208.650793458 72209.650793458 2607138393.2826
vector 55  BasicTopology.peer[27].bitTorrentApp.bitTorrentClient  DownloadComplete_Test:vector  ETV
attr source BitTorrentClient_DownloadComplete_Test
attr title "Descargas completas (prueba), vector"
55	44171 66 179 230773918 36001 36213.59831885226 2 36001 36213.598318852 72214.598318852 2607496704.1992
vector 57  BasicTopology.peer[28].bitTorrentApp.bitTorrentClient  DownloadComplete_Test:vector  ETV
attr source BitTorrentClient_DownloadComplete_Test
attr title "Descargas completas (prueba), vector"
57	44237 67 180 233721344 36001 36231.621687091104 2 36001 36231.621687091 72232.621687091 2608802411.0765
vector 59  BasicTopology.peer[29].bitTorrentApp.bitTorrentClient  DownloadComplete_Test:vector  ETV
attr source BitTorrentClient_DownloadComplete_Test
attr title "Descargas completas (prueba), vector"
59	44304 66 181 222015966 36001 36197.12915336818 2 36001 36197.129153368 72198.129153368 2606304159.9456
vector 61  BasicTopology.peer[30].bitTorrentApp.bitTorrentClient  DownloadComplete_Test:vector  ETV
attr source BitTorrentClient_DownloadComplete_Test
attr title "Descargas completas (prueba), vector"
61	44370 67 182 230939001 36001 36213.872207302192 2 36001 36213.872207302 72214.872207302 2607516541.2468
vector 63  BasicTopology.peer[31].bitTorrentApp.bitTorrentClient  DownloadComplete_Test:vector  ETV
attr source BitTorrentClient_DownloadComplete_Test
attr title "Descargas completas (prueba), vector"
63	44437 67 183 187181865 36001 36156.557088263511 2 36001 36156.557088264 72157.557088264 2603368621.4769
vector 65  BasicTopology.peer[32].bitTorrentApp.bitTorrentClient  DownloadComplete_Test:vector  ETV
attr source BitTorrentClient_DownloadComplete_Test
attr title "Descargas completas (prueba), vector"
65	44504 67 184 224773875 36001 36201.198685761623 2 36001 36201.198685762 72202.198685762 2606598787.286
vector 67  BasicTopology.peer[33].bitTorrentApp.bitTorrentClient  DownloadComplete_Test:vector  ETV
attr source BitTorrentClient_DownloadComplete_Test
attr title "Descargas completas (prueba), vector"
67	44571 67 185 202904519 36001 36173.443365867856 2 36001 36173.443365868 72174.443365868 2604590005.9437
vector 69  BasicTopology.peer[34].bitTorrentApp.bitTorrentClient  DownloadComplete_Test:vector  ETV
attr source BitTorrentClient_DownloadComplete_Test
attr title "Descargas completas (prueba), vector"
69	44638 67 186 233899134 36001 36232.364144528954 2 36001 36232.364144529 72233.364144529 2608856212.5018
vector 71  BasicTopology.peer[35].bitTorrentApp.bitTorrentClient  DownloadComplete_Test:vector  ETV
attr source BitTorrentClient_DownloadComplete_Test
attr title "Descargas completas (prueba), vector"
71	44705 67 187 236631154 36001 36303.521986385047 2 36001 36303.521986385 72304.521986385 2614017709.6159
vector 73  BasicTopology.peer[36].bitTorrentApp.bitTorrentClient  DownloadComplete_Test:vector  ETV
attr source BitTorrentClient_DownloadComplete_Test
attr title "Descargas completas (prueba), vector"
73	44772 67 188 224085106 36001 36200.140521866108 2 36001 36200.140521866 72201.140521866 2606522174.8028
vector 75  BasicTopology.peer[37].bitTorrentApp.bitTorrentClient  DownloadComplete_Test:vector  ETV
attr source BitTorrentClient_DownloadComplete_Test
attr title "Descargas completas (prueba), vector"
75	44839 67 189 216718720 36001 36189.904125672666 2 36001 36189.904125673 72190.904125673 2605781161.6254
vector 77  BasicTopology.peer[38].bitTorrentApp.bitTorrentClient  DownloadComplete_Test:vector  ETV
attr source BitTorrentClient_DownloadComplete_Test
attr title "Descargas completas (prueba), vector"
77	44906 67 190 225780228 36001 36203.565357733641 2 36001 36203.565357734 72204.565357734 2606770145.6117
vector 79  BasicTopology.peer[39].bitTorrentApp.bitTorrentClient  DownloadComplete_Test:vector  ETV
attr source BitTorrentClient_DownloadComplete_Test
attr title "Descargas completas (prueba), vector"
79	44973 67 191 227838768 36001 36207.468828607247 2 36001 36207.468828607 72208.468828607 2607052799.9745
vector 81  BasicTopology.peer[40].bitTorrentApp.bitTorrentClient  DownloadComplete_Test:vector  ETV
attr source BitTorrentClient_DownloadComplete_Test
attr title "Descargas completas (prueba), vector"
81	45040 67 192 222353482 36001 36197.561000648093 2 36001 36197.561000648 72198.561000648 2606335423.3956
vector 83  BasicTopology.peer[41].bitTorrentApp.bitTorrentClient  DownloadComplete_Test:vector  ETV
attr source BitTorrentClient_DownloadComplete_Test
attr title "Descargas completas (prueba), vector"
83	45107 67 193 210705180 36001 36182.199224836981 2 36001 36182.199224837 72183.199224837 2605223541.7458
vector 85  BasicTopology.peer[42].bitTorrentApp.bitTorrentClient  DownloadComplete_Test:vector  ETV
attr source BitTorrentClient_DownloadComplete_Test
attr title "Descargas completas (prueba), vector"
85	45174 67 194 231979698 36001 36216.852111488075 2 36001 36216.852111488 72217.852111488 2607732377.8654
vector 87  BasicTopology.peer[43].bitTorrentApp.bitTorrentClient  DownloadComplete_Test:vector  ETV
attr source BitTorrentClient_DownloadComplete_Test
attr title "Descargas completas (prueba), vector"
87	45241 67 195 201293533 36001 36171.614894296977 2 36001 36171.614894297 72172.614894297 2604457725.0613
vector 89  BasicTopology.peer[44].bitTorrentApp.bitTorrentClient  DownloadComplete_Test:vector  ETV
attr source BitTorrentClient_DownloadComplete_Test
attr title "Descargas completas (prueba), vector"
89	45308 66 196 234792907 36001 36246.376306480398 2 36001 36246.37630648 72247.37630648 2609871796.351
vector 91  BasicTopology.peer[45].bitTorrentApp.bitTorrentClient  DownloadComplete_Test:vector  ETV
attr source BitTorrentClient_DownloadComplete_Test
attr title "Descargas completas (prueba), vector"
91	45374 67 197 227312294 36001 36206.659372787909 2 36001 36206.659372788 72207.659372788 2606994183.9371
vector 93  BasicTopology.peer[46].bitTorrentApp.bitTorrentClient  DownloadComplete_Test:vector  ETV
attr source BitTorrentClient_DownloadComplete_Test
attr title "Descargas completas (prueba), vector"
93	45441 67 198 227483457 36001 36206.946843741651 2 36001 36206.946843742 72207.946843742 2607015000.7456
vector 95  BasicTopology.peer[47].bitTorrentApp.bitTorrentClient  DownloadComplete_Test:vector  ETV
attr source BitTorrentClient_DownloadComplete_Test
attr title "Descargas completas (prueba), vector"
95	45508 66 199 223842708 36001 36199.74663766766 2 36001 36199.746637668 72200.746637668 2606493657.6314
vector 97  BasicTopology.peer[48].bitTorrentApp.bitTorrentClient  DownloadComplete_Test:vector  ETV
attr source BitTorrentClient_DownloadComplete_Test
attr title "Descargas completas (prueba), vector"
97	45574 67 200 174351672 36001 36144.149106295835 2 36001 36144.149106296 72145.149106296 2602471515.6182
vector 99  BasicTopology.peer[49].bitTorrentApp.bitTorrentClient  DownloadComplete_Test:vector  ETV
attr source BitTorrentClient_DownloadComplete_Test
attr title "Descargas completas (prueba), vector"
99	45641 67 201 209809103 36001 36181.179308946668 2 36001 36181.179308947 72182.179308947 2605149737.1862
vector 1633  BasicTopology.peer[0].bitTorrentApp.bitTorrentClient.contentManager_51  TotalBytesUploaded:vector  ETV
attr source ContentManager_TotalBytesUploaded
attr title "Total of Bytes Uploaded, vector"
attr unit B
1633	45708 19753 1025075 196906356 36002.023197606816 36166.915731362823 487 16384 7979008 1946877952 1.036673571881e+16
vector 1648  BasicTopology.peer[2].bitTorrentApp.bitTorrentClient.contentManager_51  TotalBytesDownloaded:vector  ETV
attr source ContentManager_TotalBytesDownloaded
attr title "Total of Bytes Downloaded, vector"
attr unit B
1648	94841 7738 1743440 81302451 36003.550848461101 36070.333800467307 192 16384 3145728 303562752 6.3827508985856e+14
vector 1647  BasicTopology.peer[2].bitTorrentApp.bitTorrentClient.contentManager_51  PiecesDownloaded:vector  ETV
attr source ContentManager_PieceDownloaded
attr title "Pieces Downloaded, vector"
1647	93994 847 1824150 81302451 36003.77279715799 36070.333800467307 24 0 23 276 4324
vector 1649  BasicTopology.peer[2].bitTorrentApp.bitTorrentClient.contentManager_51  TotalBytesUploaded:vector  ETV
attr source ContentManager_TotalBytesUploaded
attr title "Total of Bytes Uploaded, vector"
attr unit B
1649	102579 12401 1847855 193391046 36003.827458202168 36162.96003415684 305 16384 4997120 764559360 2.5512387595469e+15
vector 1720  BasicTopology.peer[11].bitTorrentApp.bitTorrentClient.contentManager_51  TotalBytesDownloaded:vector  ETV
attr source ContentManager_TotalBytesDownloaded
attr title "Total of Bytes Downloaded, vector"
attr unit B
1720	266775 8373 1863719 201925220 36003.862753597672 36172.393850746321 207 16384 3391488 352714752 7.9941152538624e+14
vector 1719  BasicTopology.peer[11].bitTorrentApp.bitTorrentClient.contentManager_51  PiecesDownloaded:vector  ETV
attr source ContentManager_PieceDownloaded
attr title "Pieces Downloaded, vector"
1719	265928 847 3085513 167706688 36005.152719692498 36137.936753168079 24 0 23 276 4324
vector 1721  BasicTopology.peer[11].bitTorrentApp.bitTorrentClient.contentManager_51  TotalBytesUploaded:vector  ETV
attr source ContentManager_TotalBytesUploaded
attr title "Total of Bytes Uploaded, vector"
attr unit B
1721	275148 17174 3099604 192785076 36005.169306026853 36162.274554668464 421 16384 6897664 1455407104 6.700554587734e+15
vector 1792  BasicTopology.peer[20].bitTorrentApp.bitTorrentClient.contentManager_51  TotalBytesDownloaded:vector  ETV
attr source ContentManager_TotalBytesDownloaded
attr title "Total of Bytes Downloaded, vector"
attr unit B
1792	413420 7754 3130832 115152097 36005.228042905665 36095.027761312562 192 16384 3145728 303562752 6.3827508985856e+14
vector 1728  BasicTopology.peer[12].bitTorrentApp.bitTorrentClient.contentManager_51  TotalBytesDownloaded:vector  ETV
attr source ContentManager_TotalBytesDownloaded
attr title "Total of Bytes Downloaded, vector"
attr unit B
1728	293185 7848 3155293 236567981 36005.284301216546 36302.568854085605 192 16384 3145728 303562752 6.3827508985856e+14
vector 1872  BasicTopology.peer[30].bitTorrentApp.bitTorrentClient.contentManager_51  TotalBytesDownloaded:vector  ETV
attr source ContentManager_TotalBytesDownloaded
attr title "Total of Bytes Downloaded, vector"
attr unit B
1872	571451 7848 3326312 230939001 36005.65907385374 36213.872207302192 192 16384 3145728 303562752 6.3827508985856e+14
vector 1912  BasicTopology.peer[35].bitTorrentApp.bitTorrentClient.contentManager_51  TotalBytesDownloaded:vector  ETV
attr source ContentManager_TotalBytesDownloaded
attr title "Total of Bytes Downloaded, vector"
attr unit B
1912	664334 8760 3331661 236631154 36005.66653888327 36303.521986385047 212 16384 3473408 369917952 8.586042277888e+14
vector 1791  BasicTopology.peer[20].bitTorrentApp.bitTorrentClient.contentManager_51  PiecesDownloaded:vector  ETV
attr source ContentManager_PieceDownloaded
attr title "Pieces Downloaded, vector"
1791	412571 849 3676058 115152097 36006.435341223854 36095.027761312562 24 0 23 276 4324
vector 1793  BasicTopology.peer[20].bitTorrentApp.bitTorrentClient.contentManager_51  TotalBytesUploaded:vector  ETV
attr source ContentManager_TotalBytesUploaded
attr title "Total of Bytes Uploaded, vector"
attr unit B
1793	421174 13553 3710191 221077153 36006.514129292163 36195.944370656928 332 16384 5439488 905674752 3.2892174886502e+15
vector 1816  BasicTopology.peer[23].bitTorrentApp.bitTorrentClient.contentManager_51  TotalBytesDownloaded:vector  ETV
attr source ContentManager_TotalBytesDownloaded
attr title "Total of Bytes Downloaded, vector"
attr unit B
1816	465953 7931 3754401 224875694 36006.640611100757 36201.515214899929 193 16384 3162112 306724864 6.482740421591e+14
vector 1815  BasicTopology.peer[23].bitTorrentApp.bitTorrentClient.contentManager_51  PiecesDownloaded:vector  ETV
attr source ContentManager_PieceDownloaded
attr title "Pieces Downloaded, vector"
1815	465087 866 3847456 224875694 36006.858859632505 36201.515214899929 24 0 23 276 4324
vector 1817  BasicTopology.peer[23].bitTorrentApp.bitTorrentClient.contentManager_51  TotalBytesUploaded:vector  ETV
attr source ContentManager_TotalBytesUploaded
attr title "Total of Bytes Uploaded, vector"
attr unit B
1817	473884 9303 3895334 226240130 36006.948894083577 36204.627937187177 229 16384 3751936 431472640 1.0815949032653e+15
vector 1680  BasicTopology.peer[6].bitTorrentApp.bitTorrentClient.contentManager_51  TotalBytesDownloaded:vector  ETV
attr source ContentManager_TotalBytesDownloaded
attr title "Total of Bytes Downloaded, vector"
attr unit B
1680	174258 8231 4128089 225891012 36007.136054309416 36203.816068778608 200 16384 3276800 329318400 7.212055396352e+14
vector 1672  BasicTopology.peer[5].bitTorrentApp.bitTorrentClient.contentManager_51  TotalBytesDownloaded:vector  ETV
attr source ContentManager_TotalBytesDownloaded
attr title "Total of Bytes Downloaded, vector"
attr unit B
1672	155532 7881 4149142 214150821 36007.156371650928 36186.680021056803 192 16384 3145728 303562752 6.3827508985856e+14
vector 1640  BasicTopology.peer[1].bitTorrentApp.bitTorrentClient.contentManager_51  TotalBytesDownloaded:vector  ETV
attr source ContentManager_TotalBytesDownloaded
attr title "Total of Bytes Downloaded, vector"
attr unit B
1640	66310 7758 4464901 57984361 36007.693717467295 36053.637297110359 192 16384 3145728 303562752 6.3827508985856e+14
vector 1664  BasicTopology.peer[4].bitTorrentApp.bitTorrentClient.contentManager_51  TotalBytesDownloaded:vector  ETV
attr source ContentManager_TotalBytesDownloaded
attr title "Total of Bytes Downloaded, vector"
attr unit B
1664	133809 8221 4552461 227994986 36007.840205188397 36207.730004843391 200 16384 3276800 329318400 7.212055396352e+14
vector 1656  BasicTopology.peer[3].bitTorrentApp.bitTorrentClient.contentManager_51  TotalBytesDownloaded:vector  ETV
attr source ContentManager_TotalBytesDownloaded
attr title "Total of Bytes Downloaded, vector"
attr unit B
1656	115844 8101 4577888 233695687 36007.896452561657 36231.508403107764 198 16384 3244032 322781184 6.9983780890214e+14
vector 1880  BasicTopology.peer[31].bitTorrentApp.bitTorrentClient.contentManager_51  TotalBytesDownloaded:vector  ETV
attr source ContentManager_TotalBytesDownloaded
attr title "Total of Bytes Downloaded, vector"
attr unit B
1880	587862 7796 4666256 187181865 36008.085077027561 36156.557088263511 192 16384 3145728 303562752 6.3827508985856e+14
vector 1911  BasicTopology.peer[35].bitTorrentApp.bitTorrentClient.contentManager_51  PiecesDownloaded:vector  ETV
attr source ContentManager_PieceDownloaded
attr title "Pieces Downloaded, vector"
1911	663464 870 4747302 236631154 36008.198384261906 36303.521986385047 24 0 23 276 4324
vector 1913  BasicTopology.peer[35].bitTorrentApp.bitTorrentClient.contentManager_51  TotalBytesUploaded:vector  ETV
attr source ContentManager_TotalBytesUploaded
attr title "Total of Bytes Uploaded, vector"
attr unit B
1913	673094 6483 4764231 196232316 36008.226345131334 36166.147938948368 160 16384 2621440 211025920 3.6994700804096e+14
vector 1704  BasicTopology.peer[9].bitTorrentApp.bitTorrentClient.contentManager_51  TotalBytesDownloaded:vector  ETV
attr source ContentManager_TotalBytesDownloaded
attr title "Total of Bytes Downloaded, vector"
attr unit B
1704	230694 7916 4808395 186992192 36008.308901637519 36156.368358387856 193 16384 3162112 306724864 6.482740421591e+14
vector 1968  BasicTopology.peer[42].bitTorrentApp.bitTorrentClient.contentManager_51  TotalBytesDownloaded:vector  ETV
attr source ContentManager_TotalBytesDownloaded
attr title "Total of Bytes Downloaded, vector"
attr unit B
1968	780071 8324 4841389 231979698 36008.357872156769 36216.852111488075 202 16384 3309568 335921152 7.4300384083968e+14
vector 1744  BasicTopology.peer[14].bitTorrentApp.bitTorrentClient.contentManager_51  TotalBytesDownloaded:vector  ETV
attr source ContentManager_TotalBytesDownloaded
attr title "Total of Bytes Downloaded, vector"
attr unit B
1744	331520 8337 5335855 232307892 36008.837899487919 36220.175324873961 202 16384 3309568 335921152 7.4300384083968e+14
vector 1639  BasicTopology.peer[1].bitTorrentApp.bitTorrentClient.contentManager_51  PiecesDownloaded:vector  ETV
attr source ContentManager_PieceDownloaded
attr title "Pieces Downloaded, vector"
1639	65461 849 5388983 57984361 36008.995275039408 36053.637297110359 24 0 23 276 4324
vector 1641  BasicTopology.peer[1].bitTorrentApp.bitTorrentClient.contentManager_51  TotalBytesUploaded:vector  ETV
attr source ContentManager_TotalBytesUploaded
attr title "Total of Bytes Uploaded, vector"
attr unit B
1641	74068 19926 5464532 211645240 36009.122055775917 36183.1858370426 488 16384 7995392 1954873344 1.0430662012043e+16
vector 1688  BasicTopology.peer[7].bitTorrentApp.bitTorrentClient.contentManager_51  TotalBytesDownloaded:vector  ETV
attr source ContentManager_TotalBytesDownloaded
attr title "Total of Bytes Downloaded, vector"
attr unit B
1688	196264 8203 5502858 218561443 36009.184364527308 36192.126358004107 200 16384 3276800 329318400 7.212055396352e+14
vector 1960  BasicTopology.peer[41].bitTorrentApp.bitTorrentClient.contentManager_51  TotalBytesDownloaded:vector  ETV
attr source ContentManager_TotalBytesDownloaded
attr title "Total of Bytes Downloaded, vector"
attr unit B
1960	759309 7812 5604324 210705180 36009.421081717068 36182.199224836981 192 16384 3145728 303562752 6.3827508985856e+14
vector 1679  BasicTopology.peer[6].bitTorrentApp.bitTorrentClient.contentManager_51  PiecesDownloaded:vector  ETV
attr source ContentManager_PieceDownloaded
attr title "Pieces Downloaded, vector"
1679	173392 866 5807013 225891012 36009.671529258212 36203.816068778608 24 0 23 276 4324
vector 1681  BasicTopology.peer[6].bitTorrentApp.bitTorrentClient.contentManager_51  TotalBytesUploaded:vector  ETV
attr source ContentManager_TotalBytesUploaded
attr title "Total of Bytes Uploaded, vector"
attr unit B
1681	182489 12910 5825475 225912780 36009.690176638504 36203.882033688526 315 16384 5160960 815431680 2.8100601996902e+15
vector 1727  BasicTopology.peer[12].bitTorrentApp.bitTorrentClient.contentManager_51  PiecesDownloaded:vector  ETV
attr source ContentManager_PieceDownloaded
attr title "Pieces Downloaded, vector"
1727	292322 863 5840975 236567981 36009.708352205414 36302.568854085605 24 0 23 276 4324
vector 1976  BasicTopology.peer[43].bitTorrentApp.bitTorrentClient.contentManager_51  TotalBytesDownloaded:vector  ETV
attr source ContentManager_TotalBytesDownloaded
attr title "Total of Bytes Downloaded, vector"
attr unit B
1976	798066 9987 5924933 201293533 36009.883932065928 36171.614894296977 242 16384 3964928 481738752 1.2760039135642e+15
vector 1729  BasicTopology.peer[12].bitTorrentApp.bitTorrentClient.contentManager_51  TotalBytesUploaded:vector  ETV
attr source ContentManager_TotalBytesUploaded
attr title "Total of Bytes Uploaded, vector"
attr unit B
1729	301033 12247 6315080 226180725 36010.175549171159 36204.456056312315 299 16384 4898816 734822400 2.4038529302528e+15
vector 1840  BasicTopology.peer[26].bitTorrentApp.bitTorrentClient.contentManager_51  TotalBytesDownloaded:vector  ETV
attr source ContentManager_TotalBytesDownloaded
attr title "Total of Bytes Downloaded, vector"
attr unit B
1840	513220 7888 6410614 228517732 36010.3049945766 36208.650793458156 192 16384 3145728 303562752 6.3827508985856e+14
vector 1879  BasicTopology.peer[31].bitTorrentApp.bitTorrentClient.contentManager_51  PiecesDownloaded:vector  ETV
attr source ContentManager_PieceDownloaded
attr title "Pieces Downloaded, vector"
1879	587007 855 6510548 187181865 36010.445312932244 36156.557088263511 24 0 23 276 4324
vector 1881  BasicTopology.peer[31].bitTorrentApp.bitTorrentClient.contentManager_51  TotalBytesUploaded:vector  ETV
attr source ContentManager_TotalBytesUploaded
attr title "Total of Bytes Uploaded, vector"
attr unit B
1881	595658 16928 6602974 227592615 36010.559027414687 36207.124234847754 413 16384 6766592 1400684544 6.3262234918257e+15
vector 1671  BasicTopology.peer[5].bitTorrentApp.bitTorrentClient.contentManager_51  PiecesDownloaded:vector  ETV
attr source ContentManager_PieceDownloaded
attr title "Pieces Downloaded, vector"
1671	154666 866 6623178 214150821 36010.587966043569 36186.680021056803 24 0 23 276 4324
vector 1673  BasicTopology.peer[5].bitTorrentApp.bitTorrentClient.contentManager_51  TotalBytesUploaded:vector  ETV
attr source ContentManager_TotalBytesUploaded
attr title "Total of Bytes Uploaded, vector"
attr unit B
1673	163413 9979 6678215 206794473 36010.645417817863 36177.510878407298 244 16384 3997696 489717760 1.3078363321139e+15
vector 1768  BasicTopology.peer[17].bitTorrentApp.bitTorrentClient.contentManager_51  TotalBytesDownloaded:vector  ETV
attr source ContentManager_TotalBytesDownloaded
attr title "Total of Bytes Downloaded, vector"
attr unit B
1768	368217 7914 6843576 219149399 36010.962918267582 36193.025130720735 192 16384 3145728 303562752 6.3827508985856e+14
vector 1696  BasicTopology.peer[8].bitTorrentApp.bitTorrentClient.contentManager_51  TotalBytesDownloaded:vector  ETV
attr source ContentManager_TotalBytesDownloaded
attr title "Total of Bytes Downloaded, vector"
attr unit B
1696	210107 8233 6934975 202692600 36011.121551301904 36173.212020448305 200 16384 3276800 329318400 7.212055396352e+14
vector 1776  BasicTopology.peer[18].bitTorrentApp.bitTorrentClient.contentManager_51  TotalBytesDownloaded:vector  ETV
attr source ContentManager_TotalBytesDownloaded
attr title "Total of Bytes Downloaded, vector"
attr unit B