file 917231 1593887687                                          
version 2
run Test-11-20200526-20:43:17-4303
attr configname Test
attr datetime 20200526-20:43:17
attr experiment "\"Simulation Test\""
attr inifile BasicConfig.ini
attr iterationvars ""
attr iterationvars2 $repetition=11
attr measurement "\"Peers: $peers, Rate: $rate\""
attr network BasicTopology
attr processid 4303
attr repetition 11
attr replication #11
attr resultdir results
attr runnumber 11
attr seedset 11
vector 3  BasicTopology.peer[1].bitTorrentApp.bitTorrentClient  DownloadComplete_Test:vector  ETV
attr source BitTorrentClient_DownloadComplete_Test
attr title "Descargas completas (prueba), vector"
3	42445 64 153 203298968 36001 36174.583349819983 2 36001 36174.58334982 72175.58334982 2604672481.5331
vector 5  BasicTopology.peer[2].bitTorrentApp.bitTorrentClient  DownloadComplete_Test:vector  ETV
attr source BitTorrentClient_DownloadComplete_Test
attr title "Descargas completas (prueba), vector"
5	42509 65 154 157187779 36001 36130.874983109174 2 36001 36130.874983109 72131.874983109 2601512128.0451
vector 7  BasicTopology.peer[3].bitTorrentApp.bitTorrentClient  DownloadComplete_Test:vector  ETV
attr source BitTorrentClient_DownloadComplete_Test
attr title "Descargas completas (prueba), vector"
7	42574 65 155 219380134 36001 36193.321167187753 2 36001 36193.321167188 72194.321167188 2606028498.1112
vector 9  BasicTopology.peer[4].bitTorrentApp.bitTorrentClient  DownloadComplete_Test:vector  ETV
attr source BitTorrentClient_DownloadComplete_Test
attr title "Descargas completas (prueba), vector"
9	42639 65 156 216464518 36001 36189.181732382045 2 36001 36189.181732382 72190.181732382 2605728875.4594
vector 11  BasicTopology.peer[5].bitTorrentApp.bitTorrentClient  DownloadComplete_Test:vector  ETV
attr source BitTorrentClient_DownloadComplete_Test
attr title "Descargas completas (prueba), vector"
11	42704 67 157 225080125 36001 36200.941930999194 2 36001 36200.941930999 72201.941930999 2606580197.6916
vector 13  BasicTopology.peer[6].bitTorrentApp.bitTorrentClient  DownloadComplete_Test:vector  ETV
attr source BitTorrentClient_DownloadComplete_Test
attr title "Descargas completas (prueba), vector"
13	42771 67 158 249629418 36001 36303.071959646223 2 36001 36303.071959646 72304.071959646 2613985034.7072
vector 15  BasicTopology.peer[7].bitTorrentApp.bitTorrentClient  DownloadComplete_Test:vector  ETV
attr source BitTorrentClient_DownloadComplete_Test
attr title "Descargas completas (prueba), vector"
15	42838 67 159 227104883 36001 36203.842968853162 2 36001 36203.842968853 72204.842968853 2606790246.7134
vector 17  BasicTopology.peer[8].bitTorrentApp.bitTorrentClient  DownloadComplete_Test:vector  ETV
attr source BitTorrentClient_DownloadComplete_Test
attr title "Descargas completas (prueba), vector"
17	42905 67 160 249713577 36001 36303.638783626132 2 36001 36303.638783626 72304.638783626 2614026189.932
vector 19  BasicTopology.peer[9].bitTorrentApp.bitTorrentClient  DownloadComplete_Test:vector  ETV
attr source BitTorrentClient_DownloadComplete_Test
attr title "Descargas completas (prueba), vector"
19	42972 67 161 226595652 36001 36203.033459643917 2 36001 36203.033459644 72204.033459644 2606731632.6801
vector 21  BasicTopology.peer[10].bitTorrentApp.bitTorrentClient  DownloadComplete_Test:vector  ETV
attr source BitTorrentClient_DownloadComplete_Test
attr title "Descargas completas (prueba), vector"
21	43039 67 162 201533456 36001 36172.677935814899 2 36001 36172.677935815 72173.677935815 2604534630.0482
vector 23  BasicTopology.peer[11].bitTorrentApp.bitTorrentClient  DownloadComplete_Test:vector  ETV
attr source BitTorrentClient_DownloadComplete_Test
attr title "Descargas completas (prueba), vector"
23	43106 67 163 195780348 36001 36166.454719818329 2 36001 36166.454719818 72167.454719818 2604084448.0006
vector 25  BasicTopology.peer[12].bitTorrentApp.bitTorrentClient  DownloadComplete_Test:vector  ETV
attr source BitTorrentClient_DownloadComplete_Test
attr title "Descargas completas (prueba), vector"
25	43173 67 164 232035417 36001 36210.214775392714 2 36001 36210.214775393 72211.214775393 2607251655.0801
vector 27  BasicTopology.peer[13].bitTorrentApp.bitTorrentClient  DownloadComplete_Test:vector  ETV
attr source BitTorrentClient_DownloadComplete_Test
attr title "Descargas completas (prueba), vector"
27	43240 66 165 226076243 36001 36202.252217850373 2 36001 36202.25221785 72203.25221785 2606675066.6448
vector 29  BasicTopology.peer[14].bitTorrentApp.bitTorrentClient  DownloadComplete_Test:vector  ETV
attr source BitTorrentClient_DownloadComplete_Test
attr title "Descargas completas (prueba), vector"
29	43306 66 166 223189776 36001 36198.55916788677 2 36001 36198.559167887 72199.559167887 2606407686.831
vector 31  BasicTopology.peer[15].bitTorrentApp.bitTorrentClient  DownloadComplete_Test:vector  ETV
attr source BitTorrentClient_DownloadComplete_Test
attr title "Descargas completas (prueba), vector"
31	43372 67 167 228998525 36001 36206.260986589371 2 36001 36206.260986589 72207.260986589 2606965335.629
vector 33  BasicTopology.peer[16].bitTorrentApp.bitTorrentClient  DownloadComplete_Test:vector  ETV
attr source BitTorrentClient_DownloadComplete_Test
attr title "Descargas completas (prueba), vector"
33	43439 67 168 217972617 36001 36191.274291938465 2 36001 36191.274291938 72192.274291938 2605880335.8743
vector 35  BasicTopology.peer[17].bitTorrentApp.bitTorrentClient  DownloadComplete_Test:vector  ETV
attr source BitTorrentClient_DownloadComplete_Test
attr title "Descargas completas (prueba), vector"
35	43506 67 169 246559518 36001 36237.444272256845 2 36001 36237.444272257 72238.444272257 2609224368.3849
vector 37  BasicTopology.peer[18].bitTorrentApp.bitTorrentClient  DownloadComplete_Test:vector  ETV
attr source BitTorrentClient_DownloadComplete_Test
attr title "Descargas completas (prueba), vector"
37	43573 67 170 206932498 36001 36178.453543255036 2 36001 36178.453543255 72179.453543255 2604952501.7815
vector 39  BasicTopology.peer[19].bitTorrentApp.bitTorrentClient  DownloadComplete_Test:vector  ETV
attr source BitTorrentClient_DownloadComplete_Test
attr title "Descargas completas (prueba), vector"
39	43640 67 171 208962748 36001 36180.599455734023 2 36001 36180.599455734 72181.599455734 2605107777.9763
vector 41  BasicTopology.peer[20].bitTorrentApp.bitTorrentClient  DownloadComplete_Test:vector  ETV
attr source BitTorrentClient_DownloadComplete_Test
attr title "Descargas completas (prueba), vector"
41	43707 67 172 192327228 36001 36162.702577996324 2 36001 36162.702577996 72163.702577996 2603813058.7446
vector 43  BasicTopology.peer[21].bitTorrentApp.bitTorrentClient  DownloadComplete_Test:vector  ETV
attr source BitTorrentClient_DownloadComplete_Test
attr title "Descargas completas (prueba), vector"
43	43774 67 173 219458260 36001 36193.415019318518 2 36001 36193.415019319 72194.415019319 2606035291.7607
vector 45  BasicTopology.peer[22].bitTorrentApp.bitTorrentClient  DownloadComplete_Test:vector  ETV
attr source BitTorrentClient_DownloadComplete_Test
attr title "Descargas completas (prueba), vector"
45	43841 67 174 241413794 36001 36224.420422161708 2 36001 36224.420422162 72225.420422162 2608280635.9215
vector 47  BasicTopology.peer[23].bitTorrentApp.bitTorrentClient  DownloadComplete_Test:vector  ETV
attr source BitTorrentClient_DownloadComplete_Test
attr title "Descargas completas (prueba), vector"
47	43908 67 175 225572150 36001 36201.583709875617 2 36001 36201.583709876 72202.583709876 2606626664.1032
vector 49  BasicTopology.peer[24].bitTorrentApp.bitTorrentClient  DownloadComplete_Test:vector  ETV
attr source BitTorrentClient_DownloadComplete_Test
attr title "Descargas completas (prueba), vector"
49	43975 66 176 225147744 36001 36201.00648217086 2 36001 36201.006482171 72202.006482171 2606584871.3222
vector 51  BasicTopology.peer[25].bitTorrentApp.bitTorrentClient  DownloadComplete_Test:vector  ETV
attr source BitTorrentClient_DownloadComplete_Test
attr title "Descargas completas (prueba), vector"
51	44041 67 177 213223903 36001 36185.338553799089 2 36001 36185.338553799 72186.338553799 2605450727.2531
vector 53  BasicTopology.peer[26].bitTorrentApp.bitTorrentClient  DownloadComplete_Test:vector  ETV
attr source BitTorrentClient_DownloadComplete_Test
attr title "Descargas completas (prueba), vector"
53	44108 67 178 228041872 36001 36205.121650538909 2 36001 36205.121650539 72206.121650539 2606882834.7303
vector 55  BasicTopology.peer[27].bitTorrentApp.bitTorrentClient  DownloadComplete_Test:vector  ETV
attr source BitTorrentClient_DownloadComplete_Test
attr title "Descargas completas (prueba), vector"
55	44175 67 179 229923999 36001 36207.405072766121 2 36001 36207.405072766 72208.405072766 2607048183.1034
vector 57  BasicTopology.peer[28].bitTorrentApp.bitTorrentClient  DownloadComplete_Test:vector  ETV
attr source BitTorrentClient_DownloadComplete_Test
attr title "Descargas completas (prueba), vector"
57	44242 67 180 189411019 36001 36159.623954023189 2 36001 36159.623954023 72160.623954023 2603590405.4964
vector 59  BasicTopology.peer[29].bitTorrentApp.bitTorrentClient  DownloadComplete_Test:vector  ETV
attr source BitTorrentClient_DownloadComplete_Test
attr title "Descargas completas (prueba), vector"
59	44309 66 181 243662185 36001 36229.42861009698 2 36001 36229.428610097 72230.428610097 2608643498.4141
vector 61  BasicTopology.peer[30].bitTorrentApp.bitTorrentClient  DownloadComplete_Test:vector  ETV
attr source BitTorrentClient_DownloadComplete_Test
attr title "Descargas completas (prueba), vector"
61	44375 67 182 236984512 36001 36217.301381506423 2 36001 36217.301381506 72218.301381506 2607764920.3588
vector 63  BasicTopology.peer[31].bitTorrentApp.bitTorrentClient  DownloadComplete_Test:vector  ETV
attr source BitTorrentClient_DownloadComplete_Test
attr title "Descargas completas (prueba), vector"
63	44442 67 183 231608149 36001 36209.794434924339 2 36001 36209.794434924 72210.794434924 2607221214.0195
vector 65  BasicTopology.peer[32].bitTorrentApp.bitTorrentClient  DownloadComplete_Test:vector  ETV
attr source BitTorrentClient_DownloadComplete_Test
attr title "Descargas completas (prueba), vector"
65	44509 67 184 227644105 36001 36204.645776570571 2 36001 36204.645776571 72205.645776571 2606848376.807
vector 67  BasicTopology.peer[33].bitTorrentApp.bitTorrentClient  DownloadComplete_Test:vector  ETV
attr source BitTorrentClient_DownloadComplete_Test
attr title "Descargas completas (prueba), vector"
67	44576 67 185 249961575 36001 36305.223226756315 2 36001 36305.223226756 72306.223226756 2614141234.5446
vector 69  BasicTopology.peer[34].bitTorrentApp.bitTorrentClient  DownloadComplete_Test:vector  ETV
attr source BitTorrentClient_DownloadComplete_Test
attr title "Descargas completas (prueba), vector"
69	44643 67 186 242172958 36001 36225.741499095234 2 36001 36225.741499095 72226.741499095 2608376348.1593
vector 71  BasicTopology.peer[35].bitTorrentApp.bitTorrentClient  DownloadComplete_Test:vector  ETV
attr source BitTorrentClient_DownloadComplete_Test
attr title "Descargas completas (prueba), vector"
71	44710 67 187 207747240 36001 36179.383675964661 2 36001 36179.383675965 72180.383675965 2605019804.1727
vector 73  BasicTopology.peer[36].bitTorrentApp.bitTorrentClient  DownloadComplete_Test:vector  ETV
attr source BitTorrentClient_DownloadComplete_Test
attr title "Descargas completas (prueba), vector"
73	44777 67 188 242787513 36001 36227.070030916547 2 36001 36227.070030917 72228.070030917 2608472604.025
vector 75  BasicTopology.peer[37].bitTorrentApp.bitTorrentClient  DownloadComplete_Test:vector  ETV
attr source BitTorrentClient_DownloadComplete_Test
attr title "Descargas completas (prueba), vector"
75	44844 67 189 246182194 36001 36235.626803005056 2 36001 36235.626803005 72236.626803005 2609092650.8067
vector 77  BasicTopology.peer[38].bitTorrentApp.bitTorrentClient  DownloadComplete_Test:vector  ETV
attr source BitTorrentClient_DownloadComplete_Test
attr title "Descargas completas (prueba), vector"
77	44911 66 190 237499693 36001 36218.231451739631 2 36001 36218.23145174 72219.23145174 2607832290.4918
vector 79  BasicTopology.peer[39].bitTorrentApp.bitTorrentClient  DownloadComplete_Test:vector  ETV
attr source BitTorrentClient_DownloadComplete_Test
attr title "Descargas completas (prueba), vector"
79	44977 67 191 238010467 36001 36218.916657833202 2 36001 36218.916657833 72219.916657833 2607881924.8671
vector 81  BasicTopology.peer[40].bitTorrentApp.bitTorrentClient  DownloadComplete_Test:vector  ETV
attr source BitTorrentClient_DownloadComplete_Test
attr title "Descargas completas (prueba), vector"
81	45044 67 192 248387631 36001 36262.003733671239 2 36001 36262.003733671 72263.003733671 2611004915.7808
vector 83  BasicTopology.peer[41].bitTorrentApp.bitTorrentClient  DownloadComplete_Test:vector  ETV
attr source BitTorrentClient_DownloadComplete_Test
attr title "Descargas completas (prueba), vector"
83	45111 67 193 221589662 36001 36196.449232906784 2 36001 36196.449232907 72197.449232907 2606254938.0704
vector 85  BasicTopology.peer[42].bitTorrentApp.bitTorrentClient  DownloadComplete_Test:vector  ETV
attr source BitTorrentClient_DownloadComplete_Test
attr title "Descargas completas (prueba), vector"
85	45178 67 194 243148937 36001 36228.213392878251 2 36001 36228.213392878 72229.213392878 2608555446.6399
vector 87  BasicTopology.peer[43].bitTorrentApp.bitTorrentClient  DownloadComplete_Test:vector  ETV
attr source BitTorrentClient_DownloadComplete_Test
attr title "Descargas completas (prueba), vector"
87	45245 67 195 229529477 36001 36206.937021508485 2 36001 36206.937021508 72207.937021508 2607014289.4794
vector 89  BasicTopology.peer[44].bitTorrentApp.bitTorrentClient  DownloadComplete_Test:vector  ETV
attr source BitTorrentClient_DownloadComplete_Test
attr title "Descargas completas (prueba), vector"
89	45312 67 196 247374313 36001 36247.708398096221 2 36001 36247.708398096 72248.708398096 2609968365.1134
vector 91  BasicTopology.peer[45].bitTorrentApp.bitTorrentClient  DownloadComplete_Test:vector  ETV
attr source BitTorrentClient_DownloadComplete_Test
attr title "Descargas completas (prueba), vector"
91	45379 67 197 241127900 36001 36223.901869316062 2 36001 36223.901869316 72224.901869316 2608243067.6378
vector 93  BasicTopology.peer[46].bitTorrentApp.bitTorrentClient  DownloadComplete_Test:vector  ETV
attr source BitTorrentClient_DownloadComplete_Test
attr title "Descargas completas (prueba), vector"
93	45446 67 198 249452156 36001 36302.745767692813 2 36001 36302.745767693 72303.745767693 2613961351.2738
vector 95  BasicTopology.peer[47].bitTorrentApp.bitTorrentClient  DownloadComplete_Test:vector  ETV
attr source BitTorrentClient_DownloadComplete_Test
attr title "Descargas completas (prueba), vector"
95	45513 65 199 235717372 36001 36215.194101400194 2 36001 36215.1941014 72216.1941014 2607612284.8021
vector 97  BasicTopology.peer[48].bitTorrentApp.bitTorrentClient  DownloadComplete_Test:vector  ETV
attr source BitTorrentClient_DownloadComplete_Test
attr title "Descargas completas (prueba), vector"
97	45578 67 200 244346059 36001 36230.714578672265 2 36001 36230.714578672 72231.714578672 2608736679.8812
vector 99  BasicTopology.peer[49].bitTorrentApp.bitTorrentClient  DownloadComplete_Test:vector  ETV
attr source BitTorrentClient_DownloadComplete_Test
attr title "Descargas completas (prueba), vector"
99	45645 66 201 202598941 36001 36173.777784259649 2 36001 36173.77778426 72174.77778426 2604614200.185
vector 1633  BasicTopology.peer[0].bitTorrentApp.bitTorrentClient.contentManager_51  TotalBytesUploaded:vector  ETV
attr source ContentManager_TotalBytesUploaded
attr title "Total of Bytes Uploaded, vector"
attr unit B
1633	45711 12807 2638967 238808395 36005.162255053893 36220.191795707905 316 16384 5177344 820609024 2.8368650905846e+15
vector 1744  BasicTopology.peer[14].bitTorrentApp.bitTorrentClient.contentManager_51  TotalBytesDownloaded:vector  ETV
attr source ContentManager_TotalBytesDownloaded
attr title "Total of Bytes Downloaded, vector"
attr unit B
1744	325719 8187 2885573 223189776 36006.59700844129 36198.55916788677 200 16384 3276800 329318400 7.212055396352e+14
vector 1656  BasicTopology.peer[3].bitTorrentApp.bitTorrentClient.contentManager_51  TotalBytesDownloaded:vector  ETV
attr source ContentManager_TotalBytesDownloaded
attr title "Total of Bytes Downloaded, vector"
attr unit B
1656	100369 8170 3041230 219380134 36006.948887276378 36193.321167187753 200 16384 3276800 329318400 7.212055396352e+14
vector 1743  BasicTopology.peer[14].bitTorrentApp.bitTorrentClient.contentManager_51  PiecesDownloaded:vector  ETV
attr source ContentManager_PieceDownloaded
attr title "Pieces Downloaded, vector"
1743	324857 862 3049274 223189776 36006.970698336755 36198.55916788677 24 0 23 276 4324
vector 1745  BasicTopology.peer[14].bitTorrentApp.bitTorrentClient.contentManager_51  TotalBytesUploaded:vector  ETV
attr source ContentManager_TotalBytesUploaded
attr title "Total of Bytes Uploaded, vector"
attr unit B
1745	333906 14082 3066423 223360496 36006.995937793448 36198.730107148207 346 16384 5668864 983547904 3.7224376864604e+15
vector 1680  BasicTopology.peer[6].bitTorrentApp.bitTorrentClient.contentManager_51  TotalBytesDownloaded:vector  ETV
attr source ContentManager_TotalBytesDownloaded
attr title "Total of Bytes Downloaded, vector"
attr unit B
1680	161798 7887 3559666 249629418 36008.429408926299 36303.071959646223 192 16384 3145728 303562752 6.3827508985856e+14
vector 1672  BasicTopology.peer[5].bitTorrentApp.bitTorrentClient.contentManager_51  TotalBytesDownloaded:vector  ETV
attr source ContentManager_TotalBytesDownloaded
attr title "Total of Bytes Downloaded, vector"
attr unit B
1672	140622 8234 3899309 225080125 36008.729294363929 36200.941930999194 201 16384 3293184 332611584 7.3205060049306e+14
vector 1655  BasicTopology.peer[3].bitTorrentApp.bitTorrentClient.contentManager_51  PiecesDownloaded:vector  ETV
attr source ContentManager_PieceDownloaded
attr title "Pieces Downloaded, vector"
1655	99511 858 3985563 219380134 36008.939228349277 36193.321167187753 24 0 23 276 4324
vector 1657  BasicTopology.peer[3].bitTorrentApp.bitTorrentClient.contentManager_51  TotalBytesUploaded:vector  ETV
attr source ContentManager_TotalBytesUploaded
attr title "Total of Bytes Uploaded, vector"
attr unit B
1657	108539 16037 3998195 231281714 36008.962145678425 36209.288219425061 391 16384 6406144 1255604224 5.3692449171702e+15
vector 1648  BasicTopology.peer[2].bitTorrentApp.bitTorrentClient.contentManager_51  TotalBytesDownloaded:vector  ETV
attr source ContentManager_TotalBytesDownloaded
attr title "Total of Bytes Downloaded, vector"
attr unit B
1648	76877 8041 4040430 157187779 36009.034018234917 36130.874983109174 197 16384 3227648 319537152 6.8931406528512e+14
vector 1776  BasicTopology.peer[18].bitTorrentApp.bitTorrentClient.contentManager_51  TotalBytesDownloaded:vector  ETV
attr source ContentManager_TotalBytesDownloaded
attr title "Total of Bytes Downloaded, vector"
attr unit B
1776	385713 8560 4090770 213523745 36009.13289459325 36185.695761805539 208 16384 3407872 356122624 8.1102511695462e+14
vector 1647  BasicTopology.peer[2].bitTorrentApp.bitTorrentClient.contentManager_51  PiecesDownloaded:vector  ETV
attr source ContentManager_PieceDownloaded
attr title "Pieces Downloaded, vector"
1647	76016 861 4159708 157187779 36009.235849156277 36130.874983109174 24 0 23 276 4324
vector 1649  BasicTopology.peer[2].bitTorrentApp.bitTorrentClient.contentManager_51  TotalBytesUploaded:vector  ETV
attr source ContentManager_TotalBytesUploaded
attr title "Total of Bytes Uploaded, vector"
attr unit B
1649	84918 14593 4184015 232932195 36009.269769254356 36211.576735546459 357 16384 5849088 1046986752 4.088329708503e+15
vector 1720  BasicTopology.peer[11].bitTorrentApp.bitTorrentClient.contentManager_51  TotalBytesDownloaded:vector  ETV
attr source ContentManager_TotalBytesDownloaded
attr title "Total of Bytes Downloaded, vector"
attr unit B
1720	260163 8502 4210639 195780348 36009.305755676099 36166.454719818329 208 16384 3407872 356122624 8.1102511695462e+14
vector 1736  BasicTopology.peer[13].bitTorrentApp.bitTorrentClient.contentManager_51  TotalBytesDownloaded:vector  ETV
attr source ContentManager_TotalBytesDownloaded
attr title "Total of Bytes Downloaded, vector"
attr unit B
1736	306438 8137 4231942 226076243 36009.348209316782 36202.252217850373 198 16384 3244032 322781184 6.9983780890214e+14
vector 1735  BasicTopology.peer[13].bitTorrentApp.bitTorrentClient.contentManager_51  PiecesDownloaded:vector  ETV
attr source ContentManager_PieceDownloaded
attr title "Pieces Downloaded, vector"
1735	305573 865 4317586 226076243 36009.54295544104 36202.252217850373 24 0 23 276 4324
vector 1737  BasicTopology.peer[13].bitTorrentApp.bitTorrentClient.contentManager_51  TotalBytesUploaded:vector  ETV
attr source ContentManager_TotalBytesUploaded
attr title "Total of Bytes Uploaded, vector"
attr unit B
1737	314575 10282 4331838 226075689 36009.5703078796 36202.251569902067 252 16384 4128768 522289152 1.4404595535053e+15
vector 1679  BasicTopology.peer[6].bitTorrentApp.bitTorrentClient.contentManager_51  PiecesDownloaded:vector  ETV
attr source ContentManager_PieceDownloaded
attr title "Pieces Downloaded, vector"
1679	160929 869 4393772 249629418 36009.717827664794 36303.071959646223 24 0 23 276 4324
vector 1681  BasicTopology.peer[6].bitTorrentApp.bitTorrentClient.contentManager_51  TotalBytesUploaded:vector  ETV
attr source ContentManager_TotalBytesUploaded
attr title "Total of Bytes Uploaded, vector"
attr unit B
1681	169685 7186 4401867 239778720 36009.742202946145 36221.606107012322 177 16384 2899968 258097152 5.0039187570688e+14
vector 1712  BasicTopology.peer[10].bitTorrentApp.bitTorrentClient.contentManager_51  TotalBytesDownloaded:vector  ETV
attr source ContentManager_TotalBytesDownloaded
attr title "Total of Bytes Downloaded, vector"
attr unit B
1712	238492 7805 5024818 201533456 36010.607036834658 36172.677935814899 192 16384 3145728 303562752 6.3827508985856e+14
vector 1775  BasicTopology.peer[18].bitTorrentApp.bitTorrentClient.contentManager_51  PiecesDownloaded:vector  ETV
attr source ContentManager_PieceDownloaded
attr title "Pieces Downloaded, vector"
1775	384848 865 5112575 206932498 36010.679147621374 36178.453543255036 24 0 23 276 4324
vector 1728  BasicTopology.peer[12].bitTorrentApp.bitTorrentClient.contentManager_51  TotalBytesDownloaded:vector  ETV
attr source ContentManager_TotalBytesDownloaded
attr title "Total of Bytes Downloaded, vector"
attr unit B
1728	288904 8972 5135220 232035417 36010.698358573257 36210.214775392714 218 16384 3571712 391102464 9.334061835223e+14
vector 1777  BasicTopology.peer[18].bitTorrentApp.bitTorrentClient.contentManager_51  TotalBytesUploaded:vector  ETV
attr source ContentManager_TotalBytesUploaded
attr title "Total of Bytes Uploaded, vector"
attr unit B
1777	394273 8019 5138571 199979685 36010.702690301374 36171.143487111594 197 16384 3227648 319537152 6.8931406528512e+14
vector 1664  BasicTopology.peer[4].bitTorrentApp.bitTorrentClient.contentManager_51  TotalBytesDownloaded:vector  ETV
attr source ContentManager_TotalBytesDownloaded
attr title "Total of Bytes Downloaded, vector"
attr unit B
1664	125440 7883 5268017 216464518 36010.906558366057 36189.181732382045 192 16384 3145728 303562752 6.3827508985856e+14
vector 1704  BasicTopology.peer[9].bitTorrentApp.bitTorrentClient.contentManager_51  TotalBytesDownloaded:vector  ETV
attr source ContentManager_TotalBytesDownloaded
attr title "Total of Bytes Downloaded, vector"
attr unit B
1704	219206 7879 5298820 226595652 36010.992880123851 36203.033459643917 192 16384 3145728 303562752 6.3827508985856e+14
vector 1752  BasicTopology.peer[15].bitTorrentApp.bitTorrentClient.contentManager_51  TotalBytesDownloaded:vector  ETV
attr source ContentManager_TotalBytesDownloaded
attr title "Total of Bytes Downloaded, vector"
attr unit B
1752	348856 7883 5346893 228998525 36011.059605507476 36206.260986589371 192 16384 3145728 303562752 6.3827508985856e+14
vector 1671  BasicTopology.peer[5].bitTorrentApp.bitTorrentClient.contentManager_51  PiecesDownloaded:vector  ETV
attr source ContentManager_PieceDownloaded
attr title "Pieces Downloaded, vector"
1671	139757 865 5400238 225080125 36011.174947319268 36200.941930999194 24 0 23 276 4324
vector 1696  BasicTopology.peer[8].bitTorrentApp.bitTorrentClient.contentManager_51  TotalBytesDownloaded:vector  ETV
attr source ContentManager_TotalBytesDownloaded
attr title "Total of Bytes Downloaded, vector"
attr unit B
1696	197496 8551 5425099 249713577 36011.510208313302 36303.638783626132 208 16384 3407872 356122624 8.1102511695462e+14
vector 1688  BasicTopology.peer[7].bitTorrentApp.bitTorrentClient.contentManager_51  TotalBytesDownloaded:vector  ETV
attr source ContentManager_TotalBytesDownloaded
attr title "Total of Bytes Downloaded, vector"
attr unit B
1688	177731 9641 5450817 227104883 36011.546828834085 36203.842968853162 234 16384 3833856 450478080 1.1538389375386e+15
vector 1936  BasicTopology.peer[38].bitTorrentApp.bitTorrentClient.contentManager_51  TotalBytesDownloaded:vector  ETV
attr source ContentManager_TotalBytesDownloaded
attr title "Total of Bytes Downloaded, vector"
attr unit B
1936	731162 7880 5471874 237499693 36011.565510103843 36218.231451739631 192 16384 3145728 303562752 6.3827508985856e+14
vector 1880  BasicTopology.peer[31].bitTorrentApp.bitTorrentClient.contentManager_51  TotalBytesDownloaded:vector  ETV
attr source ContentManager_TotalBytesDownloaded
attr title "Total of Bytes Downloaded, vector"
attr unit B
1880	612370 9173 5512599 231608149 36011.601259775463 36209.794434924339 224 16384 3670016 412876800 1.0124311658496e+15
vector 1952  BasicTopology.peer[40].bitTorrentApp.bitTorrentClient.contentManager_51  TotalBytesDownloaded:vector  ETV
attr source ContentManager_TotalBytesDownloaded
attr title "Total of Bytes Downloaded, vector"
attr unit B
1952	758678 7870 5689599 248387631 36011.800051615475 36262.003733671239 192 16384 3145728 303562752 6.3827508985856e+14
vector 1784  BasicTopology.peer[19].bitTorrentApp.bitTorrentClient.contentManager_51  TotalBytesDownloaded:vector  ETV
attr source ContentManager_TotalBytesDownloaded
attr title "Total of Bytes Downloaded, vector"
attr unit B
1784	403157 9216 5816876 215405248 36011.937554142657 36187.791741115363 224 16384 3670016 412876800 1.0124311658496e+15
vector 1768  BasicTopology.peer[17].bitTorrentApp.bitTorrentClient.contentManager_51  TotalBytesDownloaded:vector  ETV
attr source ContentManager_TotalBytesDownloaded
attr title "Total of Bytes Downloaded, vector"
attr unit B
1768	375009 7889 5867979 246559518 36011.986517851214 36237.444272256845 192 16384 3145728 303562752 6.3827508985856e+14
vector 1760  BasicTopology.peer[16].bitTorrentApp.bitTorrentClient.contentManager_51  TotalBytesDownloaded:vector  ETV
attr source ContentManager_TotalBytesDownloaded
attr title "Total of Bytes Downloaded, vector"
attr unit B
1760	364642 7879 5903236 217972617 36012.021879236667 36191.274291938465 192 16384 3145728 303562752 6.3827508985856e+14
vector 1872  BasicTopology.peer[30].bitTorrentApp.bitTorrentClient.contentManager_51  TotalBytesDownloaded:vector  ETV
attr source ContentManager_TotalBytesDownloaded
attr title "Total of Bytes Downloaded, vector"
attr unit B
1872	593364 8904 5953228 236984512 36012.069575020557 36217.301381506423 217 16384 3555328 387530752 9.2064905691136e+14
vector 1663  BasicTopology.peer[4].bitTorrentApp.bitTorrentClient.contentManager_51  PiecesDownloaded:vector  ETV
attr source ContentManager_PieceDownloaded
attr title "Pieces Downloaded, vector"
1663	124576 864 6131919 216464518 36012.255473012006 36189.181732382045 24 0 23 276 4324
vector 1920  BasicTopology.peer[36].bitTorrentApp.bitTorrentClient.contentManager_51  TotalBytesDownloaded:vector  ETV
attr source ContentManager_TotalBytesDownloaded
attr title "Total of Bytes Downloaded, vector"
attr unit B
1920	703228 8078 6269249 242787513 36012.414118388645 36227.070030916547 197 16384 3227648 319537152 6.8931406528512e+14
vector 1904  BasicTopology.peer[34].bitTorrentApp.bitTorrentClient.contentManager_51  TotalBytesDownloaded:vector  ETV
attr source ContentManager_TotalBytesDownloaded
attr title "Total of Bytes Downloaded, vector"
attr unit B
1904	672501 8499 6278602 242172958 36012.425088297496 36225.741499095234 206 16384 3375104 349323264 7.879093345321e+14
vector 1912  BasicTopology.peer[35].bitTorrentApp.bitTorrentClient.contentManager_51  TotalBytesDownloaded:vector  ETV
attr source ContentManager_TotalBytesDownloaded
attr title "Total of Bytes Downloaded, vector"
attr unit B
1912	685542 8218 6407143 247961785 36012.641891896216 36253.903247765108 200 16384 3276800 329318400 7.212055396352e+14
vector 2024  BasicTopology.peer[49].bitTorrentApp.bitTorrentClient.contentManager_51  TotalBytesDownloaded:vector  ETV
attr source ContentManager_TotalBytesDownloaded
attr title "Total of Bytes Downloaded, vector"
attr unit B
2024	905820 7875 6575160 202598941 36012.859609809723 36173.777784259649 192 16384 3145728 303562752 6.3827508985856e+14
vector 1687  BasicTopology.peer[7].bitTorrentApp.bitTorrentClient.contentManager_51  PiecesDownloaded:vector  ETV
attr source ContentManager_PieceDownloaded
attr title "Pieces Downloaded, vector"
1687	176871 860 6635158 227104883 36012.972696783995 36203.842968853162 24 0 23 276 4324
vector 1673  BasicTopology.peer[5].bitTorrentApp.bitTorrentClient.contentManager_51  TotalBytesUploaded:vector  ETV
attr source ContentManager_TotalBytesUploaded
attr title "Total of Bytes Uploaded, vector"
attr unit B
1673	148856 12073 6767669 208631998 36013.085341911307 36180.306589855068 296 16384 4849664 720175104 2.332337966678e+15
vector 1665  BasicTopology.peer[4].bitTorrentApp.bitTorrentClient.contentManager_51  TotalBytesUploaded:vector  ETV
attr source ContentManager_TotalBytesUploaded