file 902031 1593887688                                          
version 2
run Test-18-20200526-20:44:36-4419
attr configname Test
attr datetime 20200526-20:44:36
attr experiment "\"Simulation Test\""
attr inifile BasicConfig.ini
attr iterationvars ""
attr iterationvars2 $repetition=18
attr measurement "\"Peers: $peers, Rate: $rate\""
attr network BasicTopology
attr processid 4419
attr repetition 18
attr replication #18
attr resultdir results
attr runnumber 18
attr seedset 18
vector 3  BasicTopology.peer[1].bitTorrentApp.bitTorrentClient  DownloadComplete_Test:vector  ETV
attr source BitTorrentClient_DownloadComplete_Test
attr title "Descargas completas (prueba), vector"
3	42445 65 153 149105679 36001 36114.849251484078 2 36001 36114.849251484 72115.849251484 2600354337.4574
vector 5  BasicTopology.peer[2].bitTorrentApp.bitTorrentClient  DownloadComplete_Test:vector  ETV
attr source BitTorrentClient_DownloadComplete_Test
attr title "Descargas completas (prueba), vector"
5	42510 65 154 225652733 36001 36205.513865868014 2 36001 36205.513865868 72206.513865868 2606911235.2916
vector 7  BasicTopology.peer[3].bitTorrentApp.bitTorrentClient  DownloadComplete_Test:vector  ETV
attr source BitTorrentClient_DownloadComplete_Test
attr title "Descargas completas (prueba), vector"
7	42575 64 155 190057406 36001 36154.51333088795 2 36001 36154.513330888 72155.513330888 2603220835.1934
vector 9  BasicTopology.peer[4].bitTorrentApp.bitTorrentClient  DownloadComplete_Test:vector  ETV
attr source BitTorrentClient_DownloadComplete_Test
attr title "Descargas completas (prueba), vector"
9	42639 64 156 220453381 36001 36193.444244670141 2 36001 36193.44424467 72194.44424467 2606037407.292
vector 11  BasicTopology.peer[5].bitTorrentApp.bitTorrentClient  DownloadComplete_Test:vector  ETV
attr source BitTorrentClient_DownloadComplete_Test
attr title "Descargas completas (prueba), vector"
11	42703 67 157 222224967 36001 36196.243451431925 2 36001 36196.243451432 72197.243451432 2606240040.9953
vector 13  BasicTopology.peer[6].bitTorrentApp.bitTorrentClient  DownloadComplete_Test:vector  ETV
attr source BitTorrentClient_DownloadComplete_Test
attr title "Descargas completas (prueba), vector"
13	42770 67 158 161121970 36001 36125.633005062983 2 36001 36125.633005063 72126.633005063 2601133361.0165
vector 15  BasicTopology.peer[7].bitTorrentApp.bitTorrentClient  DownloadComplete_Test:vector  ETV
attr source BitTorrentClient_DownloadComplete_Test
attr title "Descargas completas (prueba), vector"
15	42837 67 159 217750163 36001 36189.450046808882 2 36001 36189.450046809 72190.450046809 2605748295.6905
vector 17  BasicTopology.peer[8].bitTorrentApp.bitTorrentClient  DownloadComplete_Test:vector  ETV
attr source BitTorrentClient_DownloadComplete_Test
attr title "Descargas completas (prueba), vector"
17	42904 67 160 218182374 36001 36190.435899829227 2 36001 36190.435899829 72191.435899829 2605819651.6196
vector 19  BasicTopology.peer[9].bitTorrentApp.bitTorrentClient  DownloadComplete_Test:vector  ETV
attr source BitTorrentClient_DownloadComplete_Test
attr title "Descargas completas (prueba), vector"
19	42971 66 161 193546861 36001 36158.51742413328 2 36001 36158.517424133 72159.517424133 2603510383.3113
vector 21  BasicTopology.peer[10].bitTorrentApp.bitTorrentClient  DownloadComplete_Test:vector  ETV
attr source BitTorrentClient_DownloadComplete_Test
attr title "Descargas completas (prueba), vector"
21	43037 64 162 70531150 36001 36059.2763589755 2 36001 36059.276358976 72060.276358976 2596343412.533
vector 23  BasicTopology.peer[11].bitTorrentApp.bitTorrentClient  DownloadComplete_Test:vector  ETV
attr source BitTorrentClient_DownloadComplete_Test
attr title "Descargas completas (prueba), vector"
23	43101 67 163 214679047 36001 36185.078328315216 2 36001 36185.078328315 72186.078328315 2605431894.6263
vector 25  BasicTopology.peer[12].bitTorrentApp.bitTorrentClient  DownloadComplete_Test:vector  ETV
attr source BitTorrentClient_DownloadComplete_Test
attr title "Descargas completas (prueba), vector"
25	43168 67 164 188504787 36001 36152.837192458609 2 36001 36152.837192459 72153.837192459 2603099638.0644
vector 27  BasicTopology.peer[13].bitTorrentApp.bitTorrentClient  DownloadComplete_Test:vector  ETV
attr source BitTorrentClient_DownloadComplete_Test
attr title "Descargas completas (prueba), vector"
27	43235 66 165 219970623 36001 36192.74254000771 2 36001 36192.742540008 72193.742540008 2605986613.5673
vector 29  BasicTopology.peer[14].bitTorrentApp.bitTorrentClient  DownloadComplete_Test:vector  ETV
attr source BitTorrentClient_DownloadComplete_Test
attr title "Descargas completas (prueba), vector"
29	43301 67 166 228136239 36001 36228.450135166095 2 36001 36228.450135166 72229.450135166 2608572600.1962
vector 31  BasicTopology.peer[15].bitTorrentApp.bitTorrentClient  DownloadComplete_Test:vector  ETV
attr source BitTorrentClient_DownloadComplete_Test
attr title "Descargas completas (prueba), vector"
31	43368 67 167 204250621 36001 36170.958584263467 2 36001 36170.958584263 72171.958584263 2604410245.9045
vector 33  BasicTopology.peer[16].bitTorrentApp.bitTorrentClient  DownloadComplete_Test:vector  ETV
attr source BitTorrentClient_DownloadComplete_Test
attr title "Descargas completas (prueba), vector"
33	43435 67 168 229171699 36001 36235.407560527851 2 36001 36235.407560528 72236.407560528 2609076762.0776
vector 35  BasicTopology.peer[17].bitTorrentApp.bitTorrentClient  DownloadComplete_Test:vector  ETV
attr source BitTorrentClient_DownloadComplete_Test
attr title "Descargas completas (prueba), vector"
35	43502 67 169 222631559 36001 36197.069278911253 2 36001 36197.069278911 72198.069278911 2606299825.3823
vector 37  BasicTopology.peer[18].bitTorrentApp.bitTorrentClient  DownloadComplete_Test:vector  ETV
attr source BitTorrentClient_DownloadComplete_Test
attr title "Descargas completas (prueba), vector"
37	43569 67 170 220096996 36001 36192.918585527335 2 36001 36192.918585527 72193.918585527 2605999356.7386
vector 39  BasicTopology.peer[19].bitTorrentApp.bitTorrentClient  DownloadComplete_Test:vector  ETV
attr source BitTorrentClient_DownloadComplete_Test
attr title "Descargas completas (prueba), vector"
39	43636 67 171 190089439 36001 36154.544019687191 2 36001 36154.544019687 72155.544019687 2603223054.2715
vector 41  BasicTopology.peer[20].bitTorrentApp.bitTorrentClient  DownloadComplete_Test:vector  ETV
attr source BitTorrentClient_DownloadComplete_Test
attr title "Descargas completas (prueba), vector"
41	43703 67 172 203614232 36001 36170.275106698153 2 36001 36170.275106698 72171.275106698 2604360802.2942
vector 43  BasicTopology.peer[21].bitTorrentApp.bitTorrentClient  DownloadComplete_Test:vector  ETV
attr source BitTorrentClient_DownloadComplete_Test
attr title "Descargas completas (prueba), vector"
43	43770 67 173 203479273 36001 36170.093926779352 2 36001 36170.093926779 72171.093926779 2604347695.672
vector 45  BasicTopology.peer[22].bitTorrentApp.bitTorrentClient  DownloadComplete_Test:vector  ETV
attr source BitTorrentClient_DownloadComplete_Test
attr title "Descargas completas (prueba), vector"
45	43837 67 174 202298761 36001 36168.911226946981 2 36001 36168.911226947 72169.911226947 2604262140.3428
vector 47  BasicTopology.peer[23].bitTorrentApp.bitTorrentClient  DownloadComplete_Test:vector  ETV
attr source BitTorrentClient_DownloadComplete_Test
attr title "Descargas completas (prueba), vector"
47	43904 67 175 229619316 36001 36236.951040435716 2 36001 36236.951040436 72237.951040436 2609188621.707
vector 49  BasicTopology.peer[24].bitTorrentApp.bitTorrentClient  DownloadComplete_Test:vector  ETV
attr source BitTorrentClient_DownloadComplete_Test
attr title "Descargas completas (prueba), vector"
49	43971 66 176 225086181 36001 36202.59591113915 2 36001 36202.595911139 72203.595911139 2606699951.7052
vector 51  BasicTopology.peer[25].bitTorrentApp.bitTorrentClient  DownloadComplete_Test:vector  ETV
attr source BitTorrentClient_DownloadComplete_Test
attr title "Descargas completas (prueba), vector"
51	44037 67 177 221777198 36001 36195.511896156188 2 36001 36195.511896156 72196.511896156 2606187082.4248
vector 53  BasicTopology.peer[26].bitTorrentApp.bitTorrentClient  DownloadComplete_Test:vector  ETV
attr source BitTorrentClient_DownloadComplete_Test
attr title "Descargas completas (prueba), vector"
53	44104 66 178 217773285 36001 36189.48256373257 2 36001 36189.482563733 72190.482563733 2605750649.2307
vector 55  BasicTopology.peer[27].bitTorrentApp.bitTorrentClient  DownloadComplete_Test:vector  ETV
attr source BitTorrentClient_DownloadComplete_Test
attr title "Descargas completas (prueba), vector"
55	44170 66 179 228680685 36001 36234.129615309709 2 36001 36234.12961531 72235.12961531 2608984149.9791
vector 57  BasicTopology.peer[28].bitTorrentApp.bitTorrentClient  DownloadComplete_Test:vector  ETV
attr source BitTorrentClient_DownloadComplete_Test
attr title "Descargas completas (prueba), vector"
57	44236 67 180 220030681 36001 36192.820036658222 2 36001 36192.820036658 72193.820036658 2605992223.2059
vector 59  BasicTopology.peer[29].bitTorrentApp.bitTorrentClient  DownloadComplete_Test:vector  ETV
attr source BitTorrentClient_DownloadComplete_Test
attr title "Descargas completas (prueba), vector"
59	44303 67 181 214469629 36001 36184.771761327644 2 36001 36184.771761328 72185.771761328 2605409708.4194
vector 61  BasicTopology.peer[30].bitTorrentApp.bitTorrentClient  DownloadComplete_Test:vector  ETV
attr source BitTorrentClient_DownloadComplete_Test
attr title "Descargas completas (prueba), vector"
61	44370 67 182 213182091 36001 36183.001128685721 2 36001 36183.001128686 72184.001128686 2605281571.6785
vector 63  BasicTopology.peer[31].bitTorrentApp.bitTorrentClient  DownloadComplete_Test:vector  ETV
attr source BitTorrentClient_DownloadComplete_Test
attr title "Descargas completas (prueba), vector"
63	44437 67 183 219072618 36001 36191.652050995323 2 36001 36191.652050995 72192.652050995 2605907679.1803
vector 65  BasicTopology.peer[32].bitTorrentApp.bitTorrentClient  DownloadComplete_Test:vector  ETV
attr source BitTorrentClient_DownloadComplete_Test
attr title "Descargas completas (prueba), vector"
65	44504 67 184 225845995 36001 36206.379569909083 2 36001 36206.379569909 72207.379569909 2606973922.5603
vector 67  BasicTopology.peer[33].bitTorrentApp.bitTorrentClient  DownloadComplete_Test:vector  ETV
attr source BitTorrentClient_DownloadComplete_Test
attr title "Descargas completas (prueba), vector"
67	44571 67 185 213506827 36001 36183.501199960839 2 36001 36183.501199961 72184.501199961 2605317760.0876
vector 69  BasicTopology.peer[34].bitTorrentApp.bitTorrentClient  DownloadComplete_Test:vector  ETV
attr source BitTorrentClient_DownloadComplete_Test
attr title "Descargas completas (prueba), vector"
69	44638 67 186 210874045 36001 36179.813785062109 2 36001 36179.813785062 72180.813785062 2605050926.5218
vector 71  BasicTopology.peer[35].bitTorrentApp.bitTorrentClient  DownloadComplete_Test:vector  ETV
attr source BitTorrentClient_DownloadComplete_Test
attr title "Descargas completas (prueba), vector"
71	44705 67 187 225285050 36001 36204.097368342583 2 36001 36204.097368343 72205.097368343 2606808667.2565
vector 73  BasicTopology.peer[36].bitTorrentApp.bitTorrentClient  DownloadComplete_Test:vector  ETV
attr source BitTorrentClient_DownloadComplete_Test
attr title "Descargas completas (prueba), vector"
73	44772 67 188 201015606 36001 36167.310339473564 2 36001 36167.310339474 72168.310339474 2604146338.1918
vector 75  BasicTopology.peer[37].bitTorrentApp.bitTorrentClient  DownloadComplete_Test:vector  ETV
attr source BitTorrentClient_DownloadComplete_Test
attr title "Descargas completas (prueba), vector"
75	44839 67 189 224250017 36001 36200.226567768761 2 36001 36200.226567769 72201.226567769 2606528404.5578
vector 77  BasicTopology.peer[38].bitTorrentApp.bitTorrentClient  DownloadComplete_Test:vector  ETV
attr source BitTorrentClient_DownloadComplete_Test
attr title "Descargas completas (prueba), vector"
77	44906 67 190 224583164 36001 36201.141909346003 2 36001 36201.141909346 72202.141909346 2606594676.5406
vector 79  BasicTopology.peer[39].bitTorrentApp.bitTorrentClient  DownloadComplete_Test:vector  ETV
attr source BitTorrentClient_DownloadComplete_Test
attr title "Descargas completas (prueba), vector"
79	44973 67 191 217465941 36001 36189.063245293788 2 36001 36189.063245294 72190.063245294 2605720299.5719
vector 81  BasicTopology.peer[40].bitTorrentApp.bitTorrentClient  DownloadComplete_Test:vector  ETV
attr source BitTorrentClient_DownloadComplete_Test
attr title "Descargas completas (prueba), vector"
81	45040 67 192 226183092 36001 36207.339825961015 2 36001 36207.339825961 72208.339825961 2607043458.2726
vector 83  BasicTopology.peer[41].bitTorrentApp.bitTorrentClient  DownloadComplete_Test:vector  ETV
attr source BitTorrentClient_DownloadComplete_Test
attr title "Descargas completas (prueba), vector"
83	45107 67 193 205248726 36001 36172.057642603444 2 36001 36172.057642603 72173.057642603 2604489755.0998
vector 85  BasicTopology.peer[42].bitTorrentApp.bitTorrentClient  DownloadComplete_Test:vector  ETV
attr source BitTorrentClient_DownloadComplete_Test
attr title "Descargas completas (prueba), vector"
85	45174 67 194 198823194 36001 36164.802169132583 2 36001 36164.802169133 72165.802169133 2603964916.9325
vector 87  BasicTopology.peer[43].bitTorrentApp.bitTorrentClient  DownloadComplete_Test:vector  ETV
attr source BitTorrentClient_DownloadComplete_Test
attr title "Descargas completas (prueba), vector"
87	45241 66 195 203925706 36001 36170.642606509901 2 36001 36170.64260651 72171.64260651 2604387387.5679
vector 89  BasicTopology.peer[44].bitTorrentApp.bitTorrentClient  DownloadComplete_Test:vector  ETV
attr source BitTorrentClient_DownloadComplete_Test
attr title "Descargas completas (prueba), vector"
89	45307 67 196 214430982 36001 36184.738794931101 2 36001 36184.738794931 72185.738794931 2605407322.6574
vector 91  BasicTopology.peer[45].bitTorrentApp.bitTorrentClient  DownloadComplete_Test:vector  ETV
attr source BitTorrentClient_DownloadComplete_Test
attr title "Descargas completas (prueba), vector"
91	45374 67 197 221729087 36001 36195.447798647094 2 36001 36195.447798647 72196.447798647 2606182442.3446
vector 93  BasicTopology.peer[46].bitTorrentApp.bitTorrentClient  DownloadComplete_Test:vector  ETV
attr source BitTorrentClient_DownloadComplete_Test
attr title "Descargas completas (prueba), vector"
93	45441 67 198 221028983 36001 36194.366999309109 2 36001 36194.366999309 72195.366999309 2606104203.4807
vector 95  BasicTopology.peer[47].bitTorrentApp.bitTorrentClient  DownloadComplete_Test:vector  ETV
attr source BitTorrentClient_DownloadComplete_Test
attr title "Descargas completas (prueba), vector"
95	45508 67 199 228542297 36001 36233.564381220504 2 36001 36233.564381221 72234.564381221 2608943188.7681
vector 97  BasicTopology.peer[48].bitTorrentApp.bitTorrentClient  DownloadComplete_Test:vector  ETV
attr source BitTorrentClient_DownloadComplete_Test
attr title "Descargas completas (prueba), vector"
97	45575 67 200 228445961 36001 36232.884669693538 2 36001 36232.884669694 72233.884669694 2608893932.4873
vector 99  BasicTopology.peer[49].bitTorrentApp.bitTorrentClient  DownloadComplete_Test:vector  ETV
attr source BitTorrentClient_DownloadComplete_Test
attr title "Descargas completas (prueba), vector"
99	45642 66 201 229471269 36001 36236.411499639908 2 36001 36236.41149964 72237.41149964 2609149519.3712
vector 1633  BasicTopology.peer[0].bitTorrentApp.bitTorrentClient.contentManager_51  TotalBytesUploaded:vector  ETV
attr source ContentManager_TotalBytesUploaded
attr title "Total of Bytes Uploaded, vector"
attr unit B
1633	45708 28587 896612 217247499 36001.704186428438 36188.789962141963 699 16384 11452416 4008345600 3.0625385100083e+16
vector 1712  BasicTopology.peer[10].bitTorrentApp.bitTorrentClient.contentManager_51  TotalBytesDownloaded:vector  ETV
attr source ContentManager_TotalBytesDownloaded
attr title "Total of Bytes Downloaded, vector"
attr unit B
1712	241448 7718 1620104 70531150 36003.122729719312 36059.2763589755 192 16384 3145728 303562752 6.3827508985856e+14
vector 1711  BasicTopology.peer[10].bitTorrentApp.bitTorrentClient.contentManager_51  PiecesDownloaded:vector  ETV
attr source ContentManager_PieceDownloaded
attr title "Pieces Downloaded, vector"
1711	240604 844 2094011 70531150 36004.210063262377 36059.2763589755 24 0 23 276 4324
vector 1713  BasicTopology.peer[10].bitTorrentApp.bitTorrentClient.contentManager_51  TotalBytesUploaded:vector  ETV
attr source ContentManager_TotalBytesUploaded
attr title "Total of Bytes Uploaded, vector"
attr unit B
1713	249166 14763 2133848 210875726 36004.293952228188 36179.815264823824 363 16384 5947392 1082425344 4.2976500399473e+15
vector 1640  BasicTopology.peer[1].bitTorrentApp.bitTorrentClient.contentManager_51  TotalBytesDownloaded:vector  ETV
attr source ContentManager_TotalBytesDownloaded
attr title "Total of Bytes Downloaded, vector"
attr unit B
1640	75146 7777 2462498 149105679 36004.636153089247 36114.849251484078 192 16384 3145728 303562752 6.3827508985856e+14
vector 1656  BasicTopology.peer[3].bitTorrentApp.bitTorrentClient.contentManager_51  TotalBytesDownloaded:vector  ETV
attr source ContentManager_TotalBytesDownloaded
attr title "Total of Bytes Downloaded, vector"
attr unit B
1656	113899 7768 2676433 190057406 36004.77923174885 36154.51333088795 192 16384 3145728 303562752 6.3827508985856e+14
vector 1808  BasicTopology.peer[22].bitTorrentApp.bitTorrentClient.contentManager_51  TotalBytesDownloaded:vector  ETV
attr source ContentManager_TotalBytesDownloaded
attr title "Total of Bytes Downloaded, vector"
attr unit B
1808	456108 8634 2932867 202298761 36005.524949834579 36168.911226946981 210 16384 3440640 362987520 8.3458864971776e+14
vector 1807  BasicTopology.peer[22].bitTorrentApp.bitTorrentClient.contentManager_51  PiecesDownloaded:vector  ETV
attr source ContentManager_PieceDownloaded
attr title "Pieces Downloaded, vector"
1807	455241 867 3083445 202298761 36005.764612104993 36168.911226946981 24 0 23 276 4324
vector 1664  BasicTopology.peer[4].bitTorrentApp.bitTorrentClient.contentManager_51  TotalBytesDownloaded:vector  ETV
attr source ContentManager_TotalBytesDownloaded
attr title "Total of Bytes Downloaded, vector"
attr unit B
1664	132731 7868 3102693 220453381 36005.788659574652 36193.444244670141 192 16384 3145728 303562752 6.3827508985856e+14
vector 1809  BasicTopology.peer[22].bitTorrentApp.bitTorrentClient.contentManager_51  TotalBytesUploaded:vector  ETV
attr source ContentManager_TotalBytesUploaded
attr title "Total of Bytes Uploaded, vector"
attr unit B
1809	464742 4837 3121726 202363317 36005.82167167806 36168.97383356933 120 16384 1966080 118947840 1.5655692664832e+14
vector 1655  BasicTopology.peer[3].bitTorrentApp.bitTorrentClient.contentManager_51  PiecesDownloaded:vector  ETV
attr source ContentManager_PieceDownloaded
attr title "Pieces Downloaded, vector"
1655	113049 850 3296842 190057406 36006.129602416934 36154.51333088795 24 0 23 276 4324
vector 1728  BasicTopology.peer[12].bitTorrentApp.bitTorrentClient.contentManager_51  TotalBytesDownloaded:vector  ETV
attr source ContentManager_TotalBytesDownloaded
attr title "Total of Bytes Downloaded, vector"
attr unit B
1728	284668 7834 3328573 188504787 36006.193022498038 36152.837192458609 192 16384 3145728 303562752 6.3827508985856e+14
vector 1657  BasicTopology.peer[3].bitTorrentApp.bitTorrentClient.contentManager_51  TotalBytesUploaded:vector  ETV
attr source ContentManager_TotalBytesUploaded
attr title "Total of Bytes Uploaded, vector"
attr unit B
1657	121667 10201 3352441 214798973 36006.266481304718 36185.225408220237 251 16384 4112384 518160384 1.4234128283075e+15
vector 1952  BasicTopology.peer[40].bitTorrentApp.bitTorrentClient.contentManager_51  TotalBytesDownloaded:vector  ETV
attr source ContentManager_TotalBytesDownloaded
attr title "Total of Bytes Downloaded, vector"
attr unit B
1952	721982 7816 3427174 226183092 36006.406643103038 36207.339825961015 192 16384 3145728 303562752 6.3827508985856e+14
vector 1727  BasicTopology.peer[12].bitTorrentApp.bitTorrentClient.contentManager_51  PiecesDownloaded:vector  ETV
attr source ContentManager_PieceDownloaded
attr title "Pieces Downloaded, vector"
1727	283810 858 3603559 188504787 36006.792998725503 36152.837192458609 24 0 23 276 4324
vector 1729  BasicTopology.peer[12].bitTorrentApp.bitTorrentClient.contentManager_51  TotalBytesUploaded:vector  ETV
attr source ContentManager_TotalBytesUploaded
attr title "Total of Bytes Uploaded, vector"
attr unit B
1729	292502 14363 3630024 191945515 36006.835196396719 36156.740283475745 353 16384 5783552 1023688704 3.9526286061732e+15
vector 1639  BasicTopology.peer[1].bitTorrentApp.bitTorrentClient.contentManager_51  PiecesDownloaded:vector  ETV
attr source ContentManager_PieceDownloaded
attr title "Pieces Downloaded, vector"
1639	74295 851 3977514 149105679 36007.244705564578 36114.849251484078 24 0 23 276 4324
vector 1641  BasicTopology.peer[1].bitTorrentApp.bitTorrentClient.contentManager_51  TotalBytesUploaded:vector  ETV
attr source ContentManager_TotalBytesUploaded
attr title "Total of Bytes Uploaded, vector"
attr unit B
1641	82923 14010 4008984 216393094 36007.303753269992 36187.409473282772 343 16384 5619712 966590464 3.6265855591383e+15
vector 1824  BasicTopology.peer[24].bitTorrentApp.bitTorrentClient.contentManager_51  TotalBytesDownloaded:vector  ETV
attr source ContentManager_TotalBytesDownloaded
attr title "Total of Bytes Downloaded, vector"
attr unit B
1824	484543 7872 4090073 225086181 36007.476949355243 36202.59591113915 192 16384 3145728 303562752 6.3827508985856e+14
vector 1768  BasicTopology.peer[17].bitTorrentApp.bitTorrentClient.contentManager_51  TotalBytesDownloaded:vector  ETV
attr source ContentManager_TotalBytesDownloaded
attr title "Total of Bytes Downloaded, vector"
attr unit B
1768	376595 8854 4124929 224050748 36007.531870769835 36199.703614458064 215 16384 3522560 380436480 8.9548457508864e+14
vector 1752  BasicTopology.peer[15].bitTorrentApp.bitTorrentClient.contentManager_51  TotalBytesDownloaded:vector  ETV
attr source ContentManager_TotalBytesDownloaded
attr title "Total of Bytes Downloaded, vector"
attr unit B
1752	338204 9132 4225100 221623605 36007.660842379608 36195.275756104129 222 16384 3637248 405553152 9.8561312161792e+14
vector 1951  BasicTopology.peer[40].bitTorrentApp.bitTorrentClient.contentManager_51  PiecesDownloaded:vector  ETV
attr source ContentManager_PieceDownloaded
attr title "Pieces Downloaded, vector"
1951	721125 857 4328226 226183092 36007.798432236054 36207.339825961015 24 0 23 276 4324
vector 1953  BasicTopology.peer[40].bitTorrentApp.bitTorrentClient.contentManager_51  TotalBytesUploaded:vector  ETV
attr source ContentManager_TotalBytesUploaded
attr title "Total of Bytes Uploaded, vector"
attr unit B
1953	729798 10049 4366928 184475432 36007.840486619944 36148.667301381513 248 16384 4063232 505872384 1.3730806434365e+15
vector 1872  BasicTopology.peer[30].bitTorrentApp.bitTorrentClient.contentManager_51  TotalBytesDownloaded:vector  ETV
attr source ContentManager_TotalBytesDownloaded
attr title "Total of Bytes Downloaded, vector"
attr unit B
1872	570342 7814 4475098 213182091 36007.968000646558 36183.001128685721 192 16384 3145728 303562752 6.3827508985856e+14
vector 1720  BasicTopology.peer[11].bitTorrentApp.bitTorrentClient.contentManager_51  TotalBytesDownloaded:vector  ETV
attr source ContentManager_TotalBytesDownloaded
attr title "Total of Bytes Downloaded, vector"
attr unit B
1720	264798 7901 4546221 214679047 36008.121145359053 36185.078328315216 192 16384 3145728 303562752 6.3827508985856e+14
vector 1968  BasicTopology.peer[42].bitTorrentApp.bitTorrentClient.contentManager_51  TotalBytesDownloaded:vector  ETV
attr source ContentManager_TotalBytesDownloaded
attr title "Total of Bytes Downloaded, vector"
attr unit B
1968	759779 7794 4557129 198823194 36008.137996878601 36164.802169132583 192 16384 3145728 303562752 6.3827508985856e+14
vector 1760  BasicTopology.peer[16].bitTorrentApp.bitTorrentClient.contentManager_51  TotalBytesDownloaded:vector  ETV
attr source ContentManager_TotalBytesDownloaded
attr title "Total of Bytes Downloaded, vector"
attr unit B
1760	359388 7876 4583610 229171699 36008.180769721253 36235.407560527851 192 16384 3145728 303562752 6.3827508985856e+14
vector 1696  BasicTopology.peer[8].bitTorrentApp.bitTorrentClient.contentManager_51  TotalBytesDownloaded:vector  ETV
attr source ContentManager_TotalBytesDownloaded
attr title "Total of Bytes Downloaded, vector"
attr unit B
1696	203186 7861 4668862 218182374 36008.321412471301 36190.435899829227 192 16384 3145728 303562752 6.3827508985856e+14
vector 1888  BasicTopology.peer[32].bitTorrentApp.bitTorrentClient.contentManager_51  TotalBytesDownloaded:vector  ETV
attr source ContentManager_TotalBytesDownloaded
attr title "Total of Bytes Downloaded, vector"
attr unit B
1888	611227 8340 5157430 226651486 36008.800342238058 36208.716535563027 202 16384 3309568 335921152 7.4300384083968e+14
vector 1751  BasicTopology.peer[15].bitTorrentApp.bitTorrentClient.contentManager_51  PiecesDownloaded:vector  ETV
attr source ContentManager_PieceDownloaded
attr title "Pieces Downloaded, vector"
1751	337337 867 5295236 204250621 36008.992147482805 36170.958584263467 24 0 23 276 4324
vector 1753  BasicTopology.peer[15].bitTorrentApp.bitTorrentClient.contentManager_51  TotalBytesUploaded:vector  ETV
attr source ContentManager_TotalBytesUploaded
attr title "Total of Bytes Uploaded, vector"
attr unit B
1753	347336 11185 5331142 203290419 36009.028831388781 36169.893868598991 274 16384 4489216 617267200 1.8507349622784e+15
vector 1704  BasicTopology.peer[9].bitTorrentApp.bitTorrentClient.contentManager_51  TotalBytesDownloaded:vector  ETV
attr source ContentManager_TotalBytesDownloaded
attr title "Total of Bytes Downloaded, vector"
attr unit B
1704	221376 8601 5419614 193546861 36009.130685985873 36158.51742413328 210 16384 3440640 362987520 8.3458864971776e+14
vector 1871  BasicTopology.peer[30].bitTorrentApp.bitTorrentClient.contentManager_51  PiecesDownloaded:vector  ETV
attr source ContentManager_PieceDownloaded
attr title "Pieces Downloaded, vector"
1871	569486 856 5461688 213182091 36009.187778624935 36183.001128685721 24 0 23 276 4324
vector 1873  BasicTopology.peer[30].bitTorrentApp.bitTorrentClient.contentManager_51  TotalBytesUploaded:vector  ETV
attr source ContentManager_TotalBytesUploaded
attr title "Total of Bytes Uploaded, vector"
attr unit B
1873	578156 14713 5517266 204946810 36009.271581017123 36171.771768058076 361 16384 5914624 1070546944 4.2271017124495e+15
vector 1792  BasicTopology.peer[20].bitTorrentApp.bitTorrentClient.contentManager_51  TotalBytesDownloaded:vector  ETV
attr source ContentManager_TotalBytesDownloaded
attr title "Total of Bytes Downloaded, vector"
attr unit B
1792	418671 8510 5570014 215940402 36009.332305295302 36186.755189482629 209 16384 3424256 359546880 8.2275064610816e+14
vector 1672  BasicTopology.peer[5].bitTorrentApp.bitTorrentClient.contentManager_51  TotalBytesDownloaded:vector  ETV
attr source ContentManager_TotalBytesDownloaded
attr title "Total of Bytes Downloaded, vector"
attr unit B
1672	152870 7847 6583584 222224967 36010.212365243349 36196.243451431925 192 16384 3145728 303562752 6.3827508985856e+14
vector 1976  BasicTopology.peer[43].bitTorrentApp.bitTorrentClient.contentManager_51  TotalBytesDownloaded:vector  ETV
attr source ContentManager_TotalBytesDownloaded
attr title "Total of Bytes Downloaded, vector"
attr unit B
1976	780381 7874 6857616 203925706 36010.532812964684 36170.642606509901 192 16384 3145728 303562752 6.3827508985856e+14
vector 1703  BasicTopology.peer[9].bitTorrentApp.bitTorrentClient.contentManager_51  PiecesDownloaded:vector  ETV
attr source ContentManager_PieceDownloaded
attr title "Pieces Downloaded, vector"
1703	220520 856 6859343 193546861 36010.534096252265 36158.51742413328 24 0 23 276 4324
vector 1705  BasicTopology.peer[9].bitTorrentApp.bitTorrentClient.contentManager_51  TotalBytesUploaded:vector  ETV
attr source ContentManager_TotalBytesUploaded
attr title "Total of Bytes Uploaded, vector"
attr unit B
1705	229977 10627 6887331 150320029 36010.557968088781 36115.870628365861 261 16384 4276224 560185344 1.6000447005327e+15
vector 1719  BasicTopology.peer[11].bitTorrentApp.bitTorrentClient.contentManager_51  PiecesDownloaded:vector  ETV
attr source ContentManager_PieceDownloaded
attr title "Pieces Downloaded, vector"
1719	263929 869 6952114 214679047 36010.615087967941 36185.078328315216 24 0 23 276 4324
vector 1688  BasicTopology.peer[7].bitTorrentApp.bitTorrentClient.contentManager_51  TotalBytesDownloaded:vector  ETV
attr source ContentManager_TotalBytesDownloaded
attr title "Total of Bytes Downloaded, vector"
attr unit B
1688	190836 8230 7017455 217750163 36010.662697854464 36189.450046808882 200 16384 3276800 329318400 7.212055396352e+14
vector 1721  BasicTopology.peer[11].bitTorrentApp.bitTorrentClient.contentManager_51  TotalBytesUploaded:vector  ETV
attr source ContentManager_TotalBytesUploaded
attr title "Total of Bytes Uploaded, vector"
attr unit B
1721	272699 11111 7026649 207933272 36010.669157873925 36175.579481958195 269 16384 4407296 594984960 1.7514326340403e+15
vector 1759  BasicTopology.peer[16].bitTorrentApp.bitTorrentClient.contentManager_51  PiecesDownloaded:vector  ETV
attr source ContentManager_PieceDownloaded
attr title "Pieces Downloaded, vector"
1759	358521 867 7169497 229171699 36010.823793535009 36235.407560527851 24 0 23 276 4324
vector 1761  BasicTopology.peer[16].bitTorrentApp.bitTorrentClient.contentManager_51  TotalBytesUploaded:vector  ETV
attr source ContentManager_TotalBytesUploaded
attr title "Total of Bytes Uploaded, vector"
attr unit B