file 894067 1593887688                                          
version 2
run Test-6-20200526-20:42:33-4228
attr configname Test
attr datetime 20200526-20:42:33
attr experiment "\"Simulation Test\""
attr inifile BasicConfig.ini
attr iterationvars ""
attr iterationvars2 $repetition=6
attr measurement "\"Peers: $peers, Rate: $rate\""
attr network BasicTopology
attr processid 4228
attr repetition 6
attr replication #6
attr resultdir results
attr runnumber 6
attr seedset 6
vector 3  BasicTopology.peer[1].bitTorrentApp.bitTorrentClient  DownloadComplete_Test:vector  ETV
attr source BitTorrentClient_DownloadComplete_Test
attr title "Descargas completas (prueba), vector"
3	42439 65 153 191601424 36001 36152.704749583987 2 36001 36152.704749584 72153.704749584 2603090061.7106
vector 5  BasicTopology.peer[2].bitTorrentApp.bitTorrentClient  DownloadComplete_Test:vector  ETV
attr source BitTorrentClient_DownloadComplete_Test
attr title "Descargas completas (prueba), vector"
5	42504 65 154 193594521 36001 36154.562115209039 2 36001 36154.562115209 72155.562115209 2603224362.7425
vector 7  BasicTopology.peer[3].bitTorrentApp.bitTorrentClient  DownloadComplete_Test:vector  ETV
attr source BitTorrentClient_DownloadComplete_Test
attr title "Descargas completas (prueba), vector"
7	42569 65 155 215486896 36001 36179.203826248379 2 36001 36179.203826248 72180.203826248 2605006790.5012
vector 9  BasicTopology.peer[4].bitTorrentApp.bitTorrentClient  DownloadComplete_Test:vector  ETV
attr source BitTorrentClient_DownloadComplete_Test
attr title "Descargas completas (prueba), vector"
9	42634 65 156 214042520 36001 36177.430530298757 2 36001 36177.430530299 72178.430530299 2604878480.7746
vector 11  BasicTopology.peer[5].bitTorrentApp.bitTorrentClient  DownloadComplete_Test:vector  ETV
attr source BitTorrentClient_DownloadComplete_Test
attr title "Descargas completas (prueba), vector"
11	42699 67 157 232630650 36001 36302.631241585651 2 36001 36302.631241586 72303.631241586 2613953036.0626
vector 13  BasicTopology.peer[6].bitTorrentApp.bitTorrentClient  DownloadComplete_Test:vector  ETV
attr source BitTorrentClient_DownloadComplete_Test
attr title "Descargas completas (prueba), vector"
13	42766 67 158 189724023 36001 36150.916570552138 2 36001 36150.916570552 72151.916570552 2602960769.891
vector 15  BasicTopology.peer[7].bitTorrentApp.bitTorrentClient  DownloadComplete_Test:vector  ETV
attr source BitTorrentClient_DownloadComplete_Test
attr title "Descargas completas (prueba), vector"
15	42833 66 159 217723971 36001 36182.047677689601 2 36001 36182.04767769 72183.04767769 2605212575.1506
vector 17  BasicTopology.peer[8].bitTorrentApp.bitTorrentClient  DownloadComplete_Test:vector  ETV
attr source BitTorrentClient_DownloadComplete_Test
attr title "Descargas completas (prueba), vector"
17	42899 67 160 205730768 36001 36167.746607692044 2 36001 36167.746607692 72168.746607692 2604177895.6782
vector 19  BasicTopology.peer[9].bitTorrentApp.bitTorrentClient  DownloadComplete_Test:vector  ETV
attr source BitTorrentClient_DownloadComplete_Test
attr title "Descargas completas (prueba), vector"
19	42966 67 161 189802449 36001 36150.981456584633 2 36001 36150.981456585 72151.981456585 2602965461.2744
vector 21  BasicTopology.peer[10].bitTorrentApp.bitTorrentClient  DownloadComplete_Test:vector  ETV
attr source BitTorrentClient_DownloadComplete_Test
attr title "Descargas completas (prueba), vector"
21	43033 67 162 218556681 36001 36183.427787892581 2 36001 36183.427787893 72184.427787893 2605312447.4817
vector 23  BasicTopology.peer[11].bitTorrentApp.bitTorrentClient  DownloadComplete_Test:vector  ETV
attr source BitTorrentClient_DownloadComplete_Test
attr title "Descargas completas (prueba), vector"
23	43100 67 163 207075611 36001 36169.138030354296 2 36001 36169.138030354 72170.138030354 2604278546.8588
vector 25  BasicTopology.peer[12].bitTorrentApp.bitTorrentClient  DownloadComplete_Test:vector  ETV
attr source BitTorrentClient_DownloadComplete_Test
attr title "Descargas completas (prueba), vector"
25	43167 67 164 221482125 36001 36187.898477772767 2 36001 36187.898477773 72188.898477773 2605635997.2376
vector 27  BasicTopology.peer[13].bitTorrentApp.bitTorrentClient  DownloadComplete_Test:vector  ETV
attr source BitTorrentClient_DownloadComplete_Test
attr title "Descargas completas (prueba), vector"
27	43234 67 165 199022323 36001 36160.276947791201 2 36001 36160.276947791 72161.276947791 2603637629.9409
vector 29  BasicTopology.peer[14].bitTorrentApp.bitTorrentClient  DownloadComplete_Test:vector  ETV
attr source BitTorrentClient_DownloadComplete_Test
attr title "Descargas completas (prueba), vector"
29	43301 67 166 223968471 36001 36192.343659818389 2 36001 36192.343659818 72193.343659818 2605957740.5904
vector 31  BasicTopology.peer[15].bitTorrentApp.bitTorrentClient  DownloadComplete_Test:vector  ETV
attr source BitTorrentClient_DownloadComplete_Test
attr title "Descargas completas (prueba), vector"
31	43368 67 167 217832212 36001 36182.256325096968 2 36001 36182.256325097 72183.256325097 2605227673.775
vector 33  BasicTopology.peer[16].bitTorrentApp.bitTorrentClient  DownloadComplete_Test:vector  ETV
attr source BitTorrentClient_DownloadComplete_Test
attr title "Descargas completas (prueba), vector"
33	43435 66 168 221594974 36001 36188.052116920287 2 36001 36188.05211692 72189.05211692 2605647117.0169
vector 35  BasicTopology.peer[17].bitTorrentApp.bitTorrentClient  DownloadComplete_Test:vector  ETV
attr source BitTorrentClient_DownloadComplete_Test
attr title "Descargas completas (prueba), vector"
35	43501 67 169 216466143 36001 36180.397357531112 2 36001 36180.397357531 72181.397357531 2605093153.9488
vector 37  BasicTopology.peer[18].bitTorrentApp.bitTorrentClient  DownloadComplete_Test:vector  ETV
attr source BitTorrentClient_DownloadComplete_Test
attr title "Descargas completas (prueba), vector"
37	43568 67 170 232932959 36001 36305.670092991805 2 36001 36305.670092992 72306.670092992 2614173681.9012
vector 39  BasicTopology.peer[19].bitTorrentApp.bitTorrentClient  DownloadComplete_Test:vector  ETV
attr source BitTorrentClient_DownloadComplete_Test
attr title "Descargas completas (prueba), vector"
39	43635 67 171 210835505 36001 36173.331168113095 2 36001 36173.331168113 72174.331168113 2604581888.798
vector 41  BasicTopology.peer[20].bitTorrentApp.bitTorrentClient  DownloadComplete_Test:vector  ETV
attr source BitTorrentClient_DownloadComplete_Test
attr title "Descargas completas (prueba), vector"
41	43702 67 172 221590465 36001 36188.047969625209 2 36001 36188.047969625 72189.047969625 2605646816.8519
vector 43  BasicTopology.peer[21].bitTorrentApp.bitTorrentClient  DownloadComplete_Test:vector  ETV
attr source BitTorrentClient_DownloadComplete_Test
attr title "Descargas completas (prueba), vector"
43	43769 67 173 212389132 36001 36175.326554295984 2 36001 36175.326554296 72176.326554296 2604726252.31
vector 45  BasicTopology.peer[22].bitTorrentApp.bitTorrentClient  DownloadComplete_Test:vector  ETV
attr source BitTorrentClient_DownloadComplete_Test
attr title "Descargas completas (prueba), vector"
45	43836 67 174 208843507 36001 36171.125039036207 2 36001 36171.125039036 72172.125039036 2604422287.5896
vector 47  BasicTopology.peer[23].bitTorrentApp.bitTorrentClient  DownloadComplete_Test:vector  ETV
attr source BitTorrentClient_DownloadComplete_Test
attr title "Descargas completas (prueba), vector"
47	43903 67 175 208821946 36001 36171.103814074656 2 36001 36171.103814075 72172.103814075 2604420752.1286
vector 49  BasicTopology.peer[24].bitTorrentApp.bitTorrentClient  DownloadComplete_Test:vector  ETV
attr source BitTorrentClient_DownloadComplete_Test
attr title "Descargas completas (prueba), vector"
49	43970 65 176 230003649 36001 36211.6635482138 2 36001 36211.663548214 72212.663548214 2607356577.9291
vector 51  BasicTopology.peer[25].bitTorrentApp.bitTorrentClient  DownloadComplete_Test:vector  ETV
attr source BitTorrentClient_DownloadComplete_Test
attr title "Descargas completas (prueba), vector"
51	44035 67 177 220333302 36001 36186.202026873417 2 36001 36186.202026873 72187.202026873 2605513218.1297
vector 53  BasicTopology.peer[26].bitTorrentApp.bitTorrentClient  DownloadComplete_Test:vector  ETV
attr source BitTorrentClient_DownloadComplete_Test
attr title "Descargas completas (prueba), vector"
53	44102 67 178 222802963 36001 36190.174755368514 2 36001 36190.174755369 72191.174755369 2605800749.8241
vector 55  BasicTopology.peer[27].bitTorrentApp.bitTorrentClient  DownloadComplete_Test:vector  ETV
attr source BitTorrentClient_DownloadComplete_Test
attr title "Descargas completas (prueba), vector"
55	44169 67 179 223647406 36001 36191.721216014379 2 36001 36191.721216014 72192.721216014 2605912685.5777
vector 57  BasicTopology.peer[28].bitTorrentApp.bitTorrentClient  DownloadComplete_Test:vector  ETV
attr source BitTorrentClient_DownloadComplete_Test
attr title "Descargas completas (prueba), vector"
57	44236 67 180 220159876 36001 36185.937287350822 2 36001 36185.937287351 72186.937287351 2605494058.3641
vector 59  BasicTopology.peer[29].bitTorrentApp.bitTorrentClient  DownloadComplete_Test:vector  ETV
attr source BitTorrentClient_DownloadComplete_Test
attr title "Descargas completas (prueba), vector"
59	44303 67 181 217928934 36001 36182.392906072263 2 36001 36182.392906072 72183.392906072 2605237557.4094
vector 61  BasicTopology.peer[30].bitTorrentApp.bitTorrentClient  DownloadComplete_Test:vector  ETV
attr source BitTorrentClient_DownloadComplete_Test
attr title "Descargas completas (prueba), vector"
61	44370 67 182 229063420 36001 36207.608484680844 2 36001 36207.608484681 72208.608484681 2607062913.1799
vector 63  BasicTopology.peer[31].bitTorrentApp.bitTorrentClient  DownloadComplete_Test:vector  ETV
attr source BitTorrentClient_DownloadComplete_Test
attr title "Descargas completas (prueba), vector"
63	44437 67 183 217439378 36001 36181.611936205918 2 36001 36181.611936206 72182.611936206 2605181043.3022
vector 65  BasicTopology.peer[32].bitTorrentApp.bitTorrentClient  DownloadComplete_Test:vector  ETV
attr source BitTorrentClient_DownloadComplete_Test
attr title "Descargas completas (prueba), vector"
65	44504 67 184 215536781 36001 36179.248506497161 2 36001 36179.248506497 72180.248506497 2605010023.4949
vector 67  BasicTopology.peer[33].bitTorrentApp.bitTorrentClient  DownloadComplete_Test:vector  ETV
attr source BitTorrentClient_DownloadComplete_Test
attr title "Descargas completas (prueba), vector"
67	44571 67 185 214754583 36001 36178.264575248887 2 36001 36178.264575249 72179.264575249 2604938828.6767
vector 69  BasicTopology.peer[34].bitTorrentApp.bitTorrentClient  DownloadComplete_Test:vector  ETV
attr source BitTorrentClient_DownloadComplete_Test
attr title "Descargas completas (prueba), vector"
69	44638 67 186 228070025 36001 36202.312724091925 2 36001 36202.312724092 72203.312724092 2606679447.573
vector 71  BasicTopology.peer[35].bitTorrentApp.bitTorrentClient  DownloadComplete_Test:vector  ETV
attr source BitTorrentClient_DownloadComplete_Test
attr title "Descargas completas (prueba), vector"
71	44705 67 187 226033238 36001 36196.513878354262 2 36001 36196.513878354 72197.513878354 2606259617.9459
vector 73  BasicTopology.peer[36].bitTorrentApp.bitTorrentClient  DownloadComplete_Test:vector  ETV
attr source BitTorrentClient_DownloadComplete_Test
attr title "Descargas completas (prueba), vector"
73	44772 65 188 229368045 36001 36208.60374852039 2 36001 36208.60374852 72209.60374852 2607134986.4173
vector 75  BasicTopology.peer[37].bitTorrentApp.bitTorrentClient  DownloadComplete_Test:vector  ETV
attr source BitTorrentClient_DownloadComplete_Test
attr title "Descargas completas (prueba), vector"
75	44837 66 189 212100144 36001 36174.97026238163 2 36001 36174.970262382 72175.970262382 2604700474.4842
vector 77  BasicTopology.peer[38].bitTorrentApp.bitTorrentClient  DownloadComplete_Test:vector  ETV
attr source BitTorrentClient_DownloadComplete_Test
attr title "Descargas completas (prueba), vector"
77	44903 66 190 218997774 36001 36184.14015423859 2 36001 36184.140154239 72185.140154239 2605363999.7016
vector 79  BasicTopology.peer[39].bitTorrentApp.bitTorrentClient  DownloadComplete_Test:vector  ETV
attr source BitTorrentClient_DownloadComplete_Test
attr title "Descargas completas (prueba), vector"
79	44969 67 191 232829916 36001 36304.229920804257 2 36001 36304.229920804 72305.229920804 2614069111.1426
vector 81  BasicTopology.peer[40].bitTorrentApp.bitTorrentClient  DownloadComplete_Test:vector  ETV
attr source BitTorrentClient_DownloadComplete_Test
attr title "Descargas completas (prueba), vector"
81	45036 67 192 205473566 36001 36167.501513776219 2 36001 36167.501513776 72168.501513776 2604160166.749
vector 83  BasicTopology.peer[41].bitTorrentApp.bitTorrentClient  DownloadComplete_Test:vector  ETV
attr source BitTorrentClient_DownloadComplete_Test
attr title "Descargas completas (prueba), vector"
83	45103 67 193 215327798 36001 36179.028555551601 2 36001 36179.028555552 72180.028555552 2604994108.2234
vector 85  BasicTopology.peer[42].bitTorrentApp.bitTorrentClient  DownloadComplete_Test:vector  ETV
attr source BitTorrentClient_DownloadComplete_Test
attr title "Descargas completas (prueba), vector"
85	45170 66 194 222703012 36001 36190.039047929972 2 36001 36190.03904793 72191.03904793 2605790927.2907
vector 87  BasicTopology.peer[43].bitTorrentApp.bitTorrentClient  DownloadComplete_Test:vector  ETV
attr source BitTorrentClient_DownloadComplete_Test
attr title "Descargas completas (prueba), vector"
87	45236 67 195 225370435 36001 36194.562679690733 2 36001 36194.562679691 72195.562679691 2606118368.5741
vector 89  BasicTopology.peer[44].bitTorrentApp.bitTorrentClient  DownloadComplete_Test:vector  ETV
attr source BitTorrentClient_DownloadComplete_Test
attr title "Descargas completas (prueba), vector"
89	45303 67 196 230447971 36001 36215.950628188801 2 36001 36215.950628189 72216.950628189 2607667080.9034
vector 91  BasicTopology.peer[45].bitTorrentApp.bitTorrentClient  DownloadComplete_Test:vector  ETV
attr source BitTorrentClient_DownloadComplete_Test
attr title "Descargas completas (prueba), vector"
91	45370 67 197 229757027 36001 36210.526292399193 2 36001 36210.526292399 72211.526292399 2607274215.3725
vector 93  BasicTopology.peer[46].bitTorrentApp.bitTorrentClient  DownloadComplete_Test:vector  ETV
attr source BitTorrentClient_DownloadComplete_Test
attr title "Descargas completas (prueba), vector"
93	45437 66 198 226842042 36001 36198.182333850432 2 36001 36198.18233385 72199.18233385 2606380405.2747
vector 95  BasicTopology.peer[47].bitTorrentApp.bitTorrentClient  DownloadComplete_Test:vector  ETV
attr source BitTorrentClient_DownloadComplete_Test
attr title "Descargas completas (prueba), vector"
95	45503 67 199 215825608 36001 36179.588334478382 2 36001 36179.588334478 72180.588334478 2605034613.0523
vector 97  BasicTopology.peer[48].bitTorrentApp.bitTorrentClient  DownloadComplete_Test:vector  ETV
attr source BitTorrentClient_DownloadComplete_Test
attr title "Descargas completas (prueba), vector"
97	45570 66 200 217793879 36001 36182.188221750148 2 36001 36182.18822175 72183.18822175 2605222745.5141
vector 99  BasicTopology.peer[49].bitTorrentApp.bitTorrentClient  DownloadComplete_Test:vector  ETV
attr source BitTorrentClient_DownloadComplete_Test
attr title "Descargas completas (prueba), vector"
99	45636 67 201 227822719 36001 36200.696385975007 2 36001 36200.696385975 72201.696385975 2606562419.8295
vector 1633  BasicTopology.peer[0].bitTorrentApp.bitTorrentClient.contentManager_51  TotalBytesUploaded:vector  ETV
attr source ContentManager_TotalBytesUploaded
attr title "Total of Bytes Uploaded, vector"
attr unit B
1633	45703 18008 783107 228278454 36001.622735547029 36203.598980018155 442 16384 7241728 1604042752 7.7527877523866e+15
vector 1720  BasicTopology.peer[11].bitTorrentApp.bitTorrentClient.contentManager_51  TotalBytesDownloaded:vector  ETV
attr source ContentManager_TotalBytesDownloaded
attr title "Total of Bytes Downloaded, vector"
attr unit B
1720	261692 7840 930572 207075611 36001.750882875655 36169.138030354296 192 16384 3145728 303562752 6.3827508985856e+14
vector 1719  BasicTopology.peer[11].bitTorrentApp.bitTorrentClient.contentManager_51  PiecesDownloaded:vector  ETV
attr source ContentManager_PieceDownloaded
attr title "Pieces Downloaded, vector"
1719	260830 862 1576619 207075611 36002.925125510403 36169.138030354296 24 0 23 276 4324
vector 1721  BasicTopology.peer[11].bitTorrentApp.bitTorrentClient.contentManager_51  TotalBytesUploaded:vector  ETV
attr source ContentManager_TotalBytesUploaded
attr title "Total of Bytes Uploaded, vector"
attr unit B
1721	269532 11441 1581181 191946896 36002.934513489387 36153.016932855021 281 16384 4603904 649150464 1.9959628389417e+15
vector 1736  BasicTopology.peer[13].bitTorrentApp.bitTorrentClient.contentManager_51  TotalBytesDownloaded:vector  ETV
attr source ContentManager_TotalBytesDownloaded
attr title "Total of Bytes Downloaded, vector"
attr unit B
1736	305701 7829 1791937 199022323 36003.13996533887 36160.276947791201 192 16384 3145728 303562752 6.3827508985856e+14
vector 1735  BasicTopology.peer[13].bitTorrentApp.bitTorrentClient.contentManager_51  PiecesDownloaded:vector  ETV
attr source ContentManager_PieceDownloaded
attr title "Pieces Downloaded, vector"
1735	304842 859 1940890 199022323 36003.52069469158 36160.276947791201 24 0 23 276 4324
vector 1737  BasicTopology.peer[13].bitTorrentApp.bitTorrentClient.contentManager_51  TotalBytesUploaded:vector  ETV
attr source ContentManager_TotalBytesUploaded
attr title "Total of Bytes Uploaded, vector"
attr unit B
1737	313530 16133 1953950 199071929 36003.53409708518 36160.334128982181 395 16384 6471680 1281392640 5.5355068592947e+15
vector 1872  BasicTopology.peer[30].bitTorrentApp.bitTorrentClient.contentManager_51  TotalBytesDownloaded:vector  ETV
attr source ContentManager_TotalBytesDownloaded
attr title "Total of Bytes Downloaded, vector"
attr unit B
1872	570697 8676 2486618 229063420 36004.247116546413 36207.608484680844 211 16384 3457024 366444544 8.4653966465434e+14
vector 1896  BasicTopology.peer[33].bitTorrentApp.bitTorrentClient.contentManager_51  TotalBytesDownloaded:vector  ETV
attr source ContentManager_TotalBytesDownloaded
attr title "Total of Bytes Downloaded, vector"
attr unit B
1896	627580 8087 2490564 214754583 36004.328911275272 36178.264575248887 198 16384 3244032 322781184 6.9983780890214e+14
vector 1752  BasicTopology.peer[15].bitTorrentApp.bitTorrentClient.contentManager_51  TotalBytesDownloaded:vector  ETV
attr source ContentManager_TotalBytesDownloaded
attr title "Total of Bytes Downloaded, vector"
attr unit B
1752	340309 7888 3032457 217832212 36004.941407260547 36182.256325096968 192 16384 3145728 303562752 6.3827508985856e+14
vector 1800  BasicTopology.peer[21].bitTorrentApp.bitTorrentClient.contentManager_51  TotalBytesDownloaded:vector  ETV
attr source ContentManager_TotalBytesDownloaded
attr title "Total of Bytes Downloaded, vector"
attr unit B
1800	437440 7845 3054170 212389132 36004.988858582351 36175.326554295984 192 16384 3145728 303562752 6.3827508985856e+14
vector 1832  BasicTopology.peer[25].bitTorrentApp.bitTorrentClient.contentManager_51  TotalBytesDownloaded:vector  ETV
attr source ContentManager_TotalBytesDownloaded
attr title "Total of Bytes Downloaded, vector"
attr unit B
1832	505586 8459 3279592 220333302 36005.356871750596 36186.202026873417 205 16384 3358720 345948160 7.7651800752128e+14
vector 1960  BasicTopology.peer[41].bitTorrentApp.bitTorrentClient.contentManager_51  TotalBytesDownloaded:vector  ETV
attr source ContentManager_TotalBytesDownloaded
attr title "Total of Bytes Downloaded, vector"
attr unit B
1960	754537 8512 3638945 215327798 36005.902145172755 36179.028555551601 208 16384 3407872 356122624 8.1102511695462e+14
vector 1712  BasicTopology.peer[10].bitTorrentApp.bitTorrentClient.contentManager_51  TotalBytesDownloaded:vector  ETV
attr source ContentManager_TotalBytesDownloaded
attr title "Total of Bytes Downloaded, vector"
attr unit B
1712	236105 7821 3745833 218556681 36006.04898095896 36183.427787892581 192 16384 3145728 303562752 6.3827508985856e+14
vector 1751  BasicTopology.peer[15].bitTorrentApp.bitTorrentClient.contentManager_51  PiecesDownloaded:vector  ETV
attr source ContentManager_PieceDownloaded
attr title "Pieces Downloaded, vector"
1751	339445 864 3875762 217832212 36006.21822078844 36182.256325096968 24 0 23 276 4324
vector 1753  BasicTopology.peer[15].bitTorrentApp.bitTorrentClient.contentManager_51  TotalBytesUploaded:vector  ETV
attr source ContentManager_TotalBytesUploaded
attr title "Total of Bytes Uploaded, vector"
attr unit B
1753	348197 10743 3896517 191582321 36006.236104226051 36152.683818492845 264 16384 4325376 573112320 1.6557474735718e+15
vector 1711  BasicTopology.peer[10].bitTorrentApp.bitTorrentClient.contentManager_51  PiecesDownloaded:vector  ETV
attr source ContentManager_PieceDownloaded
attr title "Pieces Downloaded, vector"
1711	235246 859 3904786 218556681 36006.244822848431 36183.427787892581 24 0 23 276 4324
vector 1713  BasicTopology.peer[10].bitTorrentApp.bitTorrentClient.contentManager_51  TotalBytesUploaded:vector  ETV
attr source ContentManager_TotalBytesUploaded
attr title "Total of Bytes Uploaded, vector"
attr unit B
1713	243926 16904 3938095 229197413 36006.280699118042 36208.277645820204 413 16384 6766592 1400684544 6.3262234918257e+15
vector 1640  BasicTopology.peer[1].bitTorrentApp.bitTorrentClient.contentManager_51  TotalBytesDownloaded:vector  ETV
attr source ContentManager_TotalBytesDownloaded
attr title "Total of Bytes Downloaded, vector"
attr unit B
1640	64570 7833 3975892 191601424 36006.313835256303 36152.704749583987 192 16384 3145728 303562752 6.3827508985856e+14
vector 1784  BasicTopology.peer[19].bitTorrentApp.bitTorrentClient.contentManager_51  TotalBytesDownloaded:vector  ETV
attr source ContentManager_TotalBytesDownloaded
attr title "Total of Bytes Downloaded, vector"
attr unit B
1784	404242 8125 4004312 210835505 36006.339653884719 36173.331168113095 198 16384 3244032 322781184 6.9983780890214e+14
vector 1992  BasicTopology.peer[45].bitTorrentApp.bitTorrentClient.contentManager_51  TotalBytesDownloaded:vector  ETV
attr source ContentManager_TotalBytesDownloaded
attr title "Total of Bytes Downloaded, vector"
attr unit B
1992	828653 7887 4022821 229757027 36006.355520223218 36210.526292399193 192 16384 3145728 303562752 6.3827508985856e+14
vector 1783  BasicTopology.peer[19].bitTorrentApp.bitTorrentClient.contentManager_51  PiecesDownloaded:vector  ETV
attr source ContentManager_PieceDownloaded
attr title "Pieces Downloaded, vector"
1783	403379 863 4271371 210835505 36006.589416199254 36173.331168113095 24 0 23 276 4324
vector 1785  BasicTopology.peer[19].bitTorrentApp.bitTorrentClient.contentManager_51  TotalBytesUploaded:vector  ETV
attr source ContentManager_TotalBytesUploaded
attr title "Total of Bytes Uploaded, vector"
attr unit B
1785	412367 9585 4288822 205356705 36006.603850241982 36167.390445015146 235 16384 3850240 454328320 1.1686632855962e+15
vector 1871  BasicTopology.peer[30].bitTorrentApp.bitTorrentClient.contentManager_51  PiecesDownloaded:vector  ETV
attr source ContentManager_PieceDownloaded
attr title "Pieces Downloaded, vector"
1871	569829 868 4397796 229063420 36006.747897564518 36207.608484680844 24 0 23 276 4324
vector 1873  BasicTopology.peer[30].bitTorrentApp.bitTorrentClient.contentManager_51  TotalBytesUploaded:vector  ETV
attr source ContentManager_TotalBytesUploaded
attr title "Total of Bytes Uploaded, vector"
attr unit B
1873	579373 6573 4445027 194515711 36006.84600928938 36155.490835757126 162 16384 2654208 216317952 3.839499436032e+14
vector 1920  BasicTopology.peer[36].bitTorrentApp.bitTorrentClient.contentManager_51  TotalBytesDownloaded:vector  ETV
attr source ContentManager_TotalBytesDownloaded
attr title "Total of Bytes Downloaded, vector"
attr unit B
1920	678687 7867 4488437 229368045 36006.908457947881 36208.60374852039 192 16384 3145728 303562752 6.3827508985856e+14
vector 1664  BasicTopology.peer[4].bitTorrentApp.bitTorrentClient.contentManager_51  TotalBytesDownloaded:vector  ETV
attr source ContentManager_TotalBytesDownloaded
attr title "Total of Bytes Downloaded, vector"
attr unit B
1664	126584 8448 4490260 217791463 36006.910706357354 36182.17107010639 206 16384 3375104 349323264 7.879093345321e+14
vector 1912  BasicTopology.peer[35].bitTorrentApp.bitTorrentClient.contentManager_51  TotalBytesDownloaded:vector  ETV
attr source ContentManager_TotalBytesDownloaded
attr title "Total of Bytes Downloaded, vector"
attr unit B
1912	662803 8182 4829514 226033238 36007.351291638937 36196.513878354262 199 16384 3260416 326041600 7.104681213952e+14
vector 1856  BasicTopology.peer[28].bitTorrentApp.bitTorrentClient.contentManager_51  TotalBytesDownloaded:vector  ETV
attr source ContentManager_TotalBytesDownloaded
attr title "Total of Bytes Downloaded, vector"
attr unit B
1856	540068 9642 5201294 226804150 36007.782860721226 36198.13134172057 234 16384 3833856 450478080 1.1538389375386e+15
vector 1672  BasicTopology.peer[5].bitTorrentApp.bitTorrentClient.contentManager_51  TotalBytesDownloaded:vector  ETV
attr source ContentManager_TotalBytesDownloaded
attr title "Total of Bytes Downloaded, vector"
attr unit B
1672	141386 8880 5251700 232630650 36007.855406005642 36302.631241585651 216 16384 3538944 383975424 9.0800869972378e+14
vector 1799  BasicTopology.peer[21].bitTorrentApp.bitTorrentClient.contentManager_51  PiecesDownloaded:vector  ETV
attr source ContentManager_PieceDownloaded
attr title "Pieces Downloaded, vector"
1799	436579 861 5345005 212389132 36007.974248492495 36175.326554295984 24 0 23 276 4324
vector 1801  BasicTopology.peer[21].bitTorrentApp.bitTorrentClient.contentManager_51  TotalBytesUploaded:vector  ETV
attr source ContentManager_TotalBytesUploaded
attr title "Total of Bytes Uploaded, vector"
attr unit B
1801	445285 11923 5395496 209584225 36008.013560953035 36172.003851009846 291 16384 4767744 696090624 2.2163228469494e+15
vector 1671  BasicTopology.peer[5].bitTorrentApp.bitTorrentClient.contentManager_51  PiecesDownloaded:vector  ETV
attr source ContentManager_PieceDownloaded
attr title "Pieces Downloaded, vector"
1671	140524 862 5412656 232630650 36008.026622971022 36302.631241585651 24 0 23 276 4324
vector 1673  BasicTopology.peer[5].bitTorrentApp.bitTorrentClient.contentManager_51  TotalBytesUploaded:vector  ETV
attr source ContentManager_TotalBytesUploaded
attr title "Total of Bytes Uploaded, vector"
attr unit B
1673	150266 8049 5466236 170846435 36008.063447944612 36133.78223826303 198 16384 3244032 322781184 6.9983780890214e+14
vector 1656  BasicTopology.peer[3].bitTorrentApp.bitTorrentClient.contentManager_51  TotalBytesDownloaded:vector  ETV
attr source ContentManager_TotalBytesDownloaded
attr title "Total of Bytes Downloaded, vector"
attr unit B
1656	108880 7869 5499038 215486896 36008.087429208949 36179.203826248379 192 16384 3145728 303562752 6.3827508985856e+14
vector 1728  BasicTopology.peer[12].bitTorrentApp.bitTorrentClient.contentManager_51  TotalBytesDownloaded:vector  ETV
attr source ContentManager_TotalBytesDownloaded
attr title "Total of Bytes Downloaded, vector"
attr unit B
1728	281838 7883 5568826 221482125 36008.145522104827 36187.898477772767 192 16384 3145728 303562752 6.3827508985856e+14
vector 1704  BasicTopology.peer[9].bitTorrentApp.bitTorrentClient.contentManager_51  TotalBytesDownloaded:vector  ETV
attr source ContentManager_TotalBytesDownloaded
attr title "Total of Bytes Downloaded, vector"
attr unit B
1704	214446 7848 5641872 189802449 36008.200403210196 36150.981456584633 192 16384 3145728 303562752 6.3827508985856e+14
vector 1680  BasicTopology.peer[6].bitTorrentApp.bitTorrentClient.contentManager_51  TotalBytesDownloaded:vector  ETV
attr source ContentManager_TotalBytesDownloaded
attr title "Total of Bytes Downloaded, vector"
attr unit B
1680	159179 7863 5814448 189724023 36008.314882907401 36150.916570552138 192 16384 3145728 303562752 6.3827508985856e+14
vector 1688  BasicTopology.peer[7].bitTorrentApp.bitTorrentClient.contentManager_51  TotalBytesDownloaded:vector  ETV
attr source ContentManager_TotalBytesDownloaded
attr title "Total of Bytes Downloaded, vector"
attr unit B
1688	180652 7889 5852124 217723971 36008.3413170171 36182.047677689601 192 16384 3145728 303562752 6.3827508985856e+14
vector 1655  BasicTopology.peer[3].bitTorrentApp.bitTorrentClient.contentManager_51  PiecesDownloaded:vector  ETV
attr source ContentManager_PieceDownloaded
attr title "Pieces Downloaded, vector"
1655	108014 866 5983832 215486896 36008.443677290949 36179.203826248379 24 0 23 276 4324
vector 1911  BasicTopology.peer[35].bitTorrentApp.bitTorrentClient.contentManager_51  PiecesDownloaded:vector  ETV
attr source ContentManager_PieceDownloaded
attr title "Pieces Downloaded, vector"
1911	661935 868 6011865 226033238 36008.463794865705 36196.513878354262 24 0 23 276 4324
vector 1657  BasicTopology.peer[3].bitTorrentApp.bitTorrentClient.contentManager_51  TotalBytesUploaded:vector  ETV
attr source ContentManager_TotalBytesUploaded
attr title "Total of Bytes Uploaded, vector"
attr unit B
1657	116749 8973 6021839 152868356 36008.472124306321 36119.879426825032 220 16384 3604480 398295040 9.5927289249792e+14
vector 1895  BasicTopology.peer[33].bitTorrentApp.bitTorrentClient.contentManager_51  PiecesDownloaded:vector  ETV
attr source ContentManager_PieceDownloaded
attr title "Pieces Downloaded, vector"
1895	626717 863 6403779 214754583 36008.748665038896 36178.264575248887 24 0 23 276 4324
vector 1936  BasicTopology.peer[38].bitTorrentApp.bitTorrentClient.contentManager_51  TotalBytesDownloaded:vector  ETV
attr source ContentManager_TotalBytesDownloaded
attr title "Total of Bytes Downloaded, vector"
attr unit B