file 928620 1593887688                                          
version 2
run Test-5-20200526-20:42:24-4212
attr configname Test
attr datetime 20200526-20:42:24
attr experiment "\"Simulation Test\""
attr inifile BasicConfig.ini
attr iterationvars ""
attr iterationvars2 $repetition=5
attr measurement "\"Peers: $peers, Rate: $rate\""
attr network BasicTopology
attr processid 4212
attr repetition 5
attr replication #5
attr resultdir results
attr runnumber 5
attr seedset 5
vector 3  BasicTopology.peer[1].bitTorrentApp.bitTorrentClient  DownloadComplete_Test:vector  ETV
attr source BitTorrentClient_DownloadComplete_Test
attr title "Descargas completas (prueba), vector"
3	42439 62 153 95549810 36001 36072.458521800328 2 36001 36072.4585218 72073.4585218 2597294264.807
vector 5  BasicTopology.peer[2].bitTorrentApp.bitTorrentClient  DownloadComplete_Test:vector  ETV
attr source BitTorrentClient_DownloadComplete_Test
attr title "Descargas completas (prueba), vector"
5	42501 65 154 208444484 36001 36165.468310819093 2 36001 36165.468310819 72166.468310819 2604013099.1409
vector 7  BasicTopology.peer[3].bitTorrentApp.bitTorrentClient  DownloadComplete_Test:vector  ETV
attr source BitTorrentClient_DownloadComplete_Test
attr title "Descargas completas (prueba), vector"
7	42566 65 155 221785290 36001 36180.312696845483 2 36001 36180.312696845 72181.312696845 2605087027.8415
vector 9  BasicTopology.peer[4].bitTorrentApp.bitTorrentClient  DownloadComplete_Test:vector  ETV
attr source BitTorrentClient_DownloadComplete_Test
attr title "Descargas completas (prueba), vector"
9	42631 65 156 234406521 36001 36197.468405393951 2 36001 36197.468405394 72198.468405394 2606328719.9595
vector 11  BasicTopology.peer[5].bitTorrentApp.bitTorrentClient  DownloadComplete_Test:vector  ETV
attr source BitTorrentClient_DownloadComplete_Test
attr title "Descargas completas (prueba), vector"
11	42696 67 157 209017486 36001 36166.146408486257 2 36001 36166.146408486 72167.146408486 2604062147.04
vector 13  BasicTopology.peer[6].bitTorrentApp.bitTorrentClient  DownloadComplete_Test:vector  ETV
attr source BitTorrentClient_DownloadComplete_Test
attr title "Descargas completas (prueba), vector"
13	42763 67 158 203364016 36001 36160.262140467984 2 36001 36160.262140468 72161.262140468 2603636559.0674
vector 15  BasicTopology.peer[7].bitTorrentApp.bitTorrentClient  DownloadComplete_Test:vector  ETV
attr source BitTorrentClient_DownloadComplete_Test
attr title "Descargas completas (prueba), vector"
15	42830 67 159 196849452 36001 36153.621021511403 2 36001 36153.621021511 72154.621021511 2603156313.967
vector 17  BasicTopology.peer[8].bitTorrentApp.bitTorrentClient  DownloadComplete_Test:vector  ETV
attr source BitTorrentClient_DownloadComplete_Test
attr title "Descargas completas (prueba), vector"
17	42897 67 160 207235655 36001 36164.082970055795 2 36001 36164.082970056 72165.082970056 2603912898.0651
vector 19  BasicTopology.peer[9].bitTorrentApp.bitTorrentClient  DownloadComplete_Test:vector  ETV
attr source BitTorrentClient_DownloadComplete_Test
attr title "Descargas completas (prueba), vector"
19	42964 65 161 214680828 36001 36172.2844911819 2 36001 36172.284491182 72173.284491182 2604506166.311
vector 21  BasicTopology.peer[10].bitTorrentApp.bitTorrentClient  DownloadComplete_Test:vector  ETV
attr source BitTorrentClient_DownloadComplete_Test
attr title "Descargas completas (prueba), vector"
21	43029 65 162 207822467 36001 36164.812671300433 2 36001 36164.8126713 72165.8126713 2603965676.5502
vector 23  BasicTopology.peer[11].bitTorrentApp.bitTorrentClient  DownloadComplete_Test:vector  ETV
attr source BitTorrentClient_DownloadComplete_Test
attr title "Descargas completas (prueba), vector"
23	43094 67 163 239467279 36001 36205.230850205203 2 36001 36205.230850205 72206.230850205 2606890741.9166
vector 25  BasicTopology.peer[12].bitTorrentApp.bitTorrentClient  DownloadComplete_Test:vector  ETV
attr source BitTorrentClient_DownloadComplete_Test
attr title "Descargas completas (prueba), vector"
25	43161 67 164 248639084 36001 36301.356854970797 2 36001 36301.356854971 72302.356854971 2613860510.512
vector 27  BasicTopology.peer[13].bitTorrentApp.bitTorrentClient  DownloadComplete_Test:vector  ETV
attr source BitTorrentClient_DownloadComplete_Test
attr title "Descargas completas (prueba), vector"
27	43228 66 165 237523627 36001 36201.964771610112 2 36001 36201.96477161 72202.96477161 2606654254.3249
vector 29  BasicTopology.peer[14].bitTorrentApp.bitTorrentClient  DownloadComplete_Test:vector  ETV
attr source BitTorrentClient_DownloadComplete_Test
attr title "Descargas completas (prueba), vector"
29	43294 66 166 222845039 36001 36181.61223822218 2 36001 36181.612238222 72182.612238222 2605181065.1571
vector 31  BasicTopology.peer[15].bitTorrentApp.bitTorrentClient  DownloadComplete_Test:vector  ETV
attr source BitTorrentClient_DownloadComplete_Test
attr title "Descargas completas (prueba), vector"
31	43360 67 167 241100405 36001 36208.210074763634 2 36001 36208.210074764 72209.210074764 2607106477.8182
vector 33  BasicTopology.peer[16].bitTorrentApp.bitTorrentClient  DownloadComplete_Test:vector  ETV
attr source BitTorrentClient_DownloadComplete_Test
attr title "Descargas completas (prueba), vector"
33	43427 67 168 211725928 36001 36168.858841336295 2 36001 36168.858841336 72169.858841336 2604258350.8845
vector 35  BasicTopology.peer[17].bitTorrentApp.bitTorrentClient  DownloadComplete_Test:vector  ETV
attr source BitTorrentClient_DownloadComplete_Test
attr title "Descargas completas (prueba), vector"
35	43494 66 169 238614371 36001 36203.83572645142 2 36001 36203.835726451 72204.835726451 2606789722.3078
vector 37  BasicTopology.peer[18].bitTorrentApp.bitTorrentClient  DownloadComplete_Test:vector  ETV
attr source BitTorrentClient_DownloadComplete_Test
attr title "Descargas completas (prueba), vector"
37	43560 67 170 236881353 36001 36201.017670152472 2 36001 36201.017670152 72202.017670152 2606585681.3547
vector 39  BasicTopology.peer[19].bitTorrentApp.bitTorrentClient  DownloadComplete_Test:vector  ETV
attr source BitTorrentClient_DownloadComplete_Test
attr title "Descargas completas (prueba), vector"
39	43627 67 171 215226118 36001 36172.937393546007 2 36001 36172.937393546 72173.937393546 2604553400.6774
vector 41  BasicTopology.peer[20].bitTorrentApp.bitTorrentClient  DownloadComplete_Test:vector  ETV
attr source BitTorrentClient_DownloadComplete_Test
attr title "Descargas completas (prueba), vector"
41	43694 67 172 236055724 36001 36199.842978183999 2 36001 36199.842978184 72200.842978184 2606500632.6452
vector 43  BasicTopology.peer[21].bitTorrentApp.bitTorrentClient  DownloadComplete_Test:vector  ETV
attr source BitTorrentClient_DownloadComplete_Test
attr title "Descargas completas (prueba), vector"
43	43761 67 173 212098804 36001 36169.320506037889 2 36001 36169.320506038 72170.320506038 2604291746.8685
vector 45  BasicTopology.peer[22].bitTorrentApp.bitTorrentClient  DownloadComplete_Test:vector  ETV
attr source BitTorrentClient_DownloadComplete_Test
attr title "Descargas completas (prueba), vector"
45	43828 67 174 246547867 36001 36234.351691548232 2 36001 36234.351691548 72235.351691548 2609000243.5068
vector 47  BasicTopology.peer[23].bitTorrentApp.bitTorrentClient  DownloadComplete_Test:vector  ETV
attr source BitTorrentClient_DownloadComplete_Test
attr title "Descargas completas (prueba), vector"
47	43895 67 175 232905258 36001 36195.540863952052 2 36001 36195.540863952 72196.540863952 2606189179.434
vector 49  BasicTopology.peer[24].bitTorrentApp.bitTorrentClient  DownloadComplete_Test:vector  ETV
attr source BitTorrentClient_DownloadComplete_Test
attr title "Descargas completas (prueba), vector"
49	43962 67 176 244025372 36001 36213.726729016179 2 36001 36213.726729016 72214.726729016 2607506004.6038
vector 51  BasicTopology.peer[25].bitTorrentApp.bitTorrentClient  DownloadComplete_Test:vector  ETV
attr source BitTorrentClient_DownloadComplete_Test
attr title "Descargas completas (prueba), vector"
51	44029 67 177 229875336 36001 36190.934641445595 2 36001 36190.934641446 72191.934641446 2605855751.2214
vector 53  BasicTopology.peer[26].bitTorrentApp.bitTorrentClient  DownloadComplete_Test:vector  ETV
attr source BitTorrentClient_DownloadComplete_Test
attr title "Descargas completas (prueba), vector"
53	44096 67 178 226559709 36001 36186.250378515672 2 36001 36186.250378516 72187.250378516 2605516717.4566
vector 55  BasicTopology.peer[27].bitTorrentApp.bitTorrentClient  DownloadComplete_Test:vector  ETV
attr source BitTorrentClient_DownloadComplete_Test
attr title "Descargas completas (prueba), vector"
55	44163 67 179 244300637 36001 36214.329971062548 2 36001 36214.329971063 72215.329971063 2607549696.253
vector 57  BasicTopology.peer[28].bitTorrentApp.bitTorrentClient  DownloadComplete_Test:vector  ETV
attr source BitTorrentClient_DownloadComplete_Test
attr title "Descargas completas (prueba), vector"
57	44230 67 180 246214303 36001 36232.740314588063 2 36001 36232.740314588 72233.740314588 2608883471.7044
vector 59  BasicTopology.peer[29].bitTorrentApp.bitTorrentClient  DownloadComplete_Test:vector  ETV
attr source BitTorrentClient_DownloadComplete_Test
attr title "Descargas completas (prueba), vector"
59	44297 67 181 248922016 36001 36302.756032906192 2 36001 36302.756032906 72303.756032906 2613962096.5847
vector 61  BasicTopology.peer[30].bitTorrentApp.bitTorrentClient  DownloadComplete_Test:vector  ETV
attr source BitTorrentClient_DownloadComplete_Test
attr title "Descargas completas (prueba), vector"
61	44364 67 182 206421175 36001 36163.325384925756 2 36001 36163.325384926 72164.325384926 2603858103.896
vector 63  BasicTopology.peer[31].bitTorrentApp.bitTorrentClient  DownloadComplete_Test:vector  ETV
attr source BitTorrentClient_DownloadComplete_Test
attr title "Descargas completas (prueba), vector"
63	44431 67 183 221372398 36001 36179.821866538404 2 36001 36179.821866538 72180.821866538 2605051511.2944
vector 65  BasicTopology.peer[32].bitTorrentApp.bitTorrentClient  DownloadComplete_Test:vector  ETV
attr source BitTorrentClient_DownloadComplete_Test
attr title "Descargas completas (prueba), vector"
65	44498 67 184 232898121 36001 36195.534698278246 2 36001 36195.534698278 72196.534698278 2606188733.0942
vector 67  BasicTopology.peer[33].bitTorrentApp.bitTorrentClient  DownloadComplete_Test:vector  ETV
attr source BitTorrentClient_DownloadComplete_Test
attr title "Descargas completas (prueba), vector"
67	44565 67 185 212161940 36001 36169.410631113049 2 36001 36169.410631113 72170.410631113 2604298266.4021
vector 69  BasicTopology.peer[34].bitTorrentApp.bitTorrentClient  DownloadComplete_Test:vector  ETV
attr source BitTorrentClient_DownloadComplete_Test
attr title "Descargas completas (prueba), vector"
69	44632 66 186 246912637 36001 36236.445615379543 2 36001 36236.44561538 72237.44561538 2609151991.8364
vector 71  BasicTopology.peer[35].bitTorrentApp.bitTorrentClient  DownloadComplete_Test:vector  ETV
attr source BitTorrentClient_DownloadComplete_Test
attr title "Descargas completas (prueba), vector"
71	44698 67 187 250944194 36001 36311.176488307117 2 36001 36311.176488307 72312.176488307 2614573538.965
vector 73  BasicTopology.peer[36].bitTorrentApp.bitTorrentClient  DownloadComplete_Test:vector  ETV
attr source BitTorrentClient_DownloadComplete_Test
attr title "Descargas completas (prueba), vector"
73	44765 67 188 242289767 36001 36210.259704048888 2 36001 36210.259704049 72211.259704049 2607254908.8347
vector 75  BasicTopology.peer[37].bitTorrentApp.bitTorrentClient  DownloadComplete_Test:vector  ETV
attr source BitTorrentClient_DownloadComplete_Test
attr title "Descargas completas (prueba), vector"
75	44832 66 189 243079117 36001 36211.83750832557 2 36001 36211.837508326 72212.837508326 2607369176.7294
vector 77  BasicTopology.peer[38].bitTorrentApp.bitTorrentClient  DownloadComplete_Test:vector  ETV
attr source BitTorrentClient_DownloadComplete_Test
attr title "Descargas completas (prueba), vector"
77	44898 67 190 220307983 36001 36178.710314701913 2 36001 36178.710314702 72179.710314702 2604971081.0351
vector 79  BasicTopology.peer[39].bitTorrentApp.bitTorrentClient  DownloadComplete_Test:vector  ETV
attr source BitTorrentClient_DownloadComplete_Test
attr title "Descargas completas (prueba), vector"
79	44965 67 191 215497400 36001 36173.212039031035 2 36001 36173.212039031 72174.212039031 2604573270.2207
vector 81  BasicTopology.peer[40].bitTorrentApp.bitTorrentClient  DownloadComplete_Test:vector  ETV
attr source BitTorrentClient_DownloadComplete_Test
attr title "Descargas completas (prueba), vector"
81	45032 67 192 220935828 36001 36179.368060993245 2 36001 36179.368060993 72180.368060993 2605018674.2928
vector 83  BasicTopology.peer[41].bitTorrentApp.bitTorrentClient  DownloadComplete_Test:vector  ETV
attr source BitTorrentClient_DownloadComplete_Test
attr title "Descargas completas (prueba), vector"
83	45099 67 193 232421698 36001 36194.841721176637 2 36001 36194.841721177 72195.841721177 2606138568.2211
vector 85  BasicTopology.peer[42].bitTorrentApp.bitTorrentClient  DownloadComplete_Test:vector  ETV
attr source BitTorrentClient_DownloadComplete_Test
attr title "Descargas completas (prueba), vector"
85	45166 67 194 250399569 36001 36307.938927746003 2 36001 36307.938927746 72308.938927746 2614338430.1809
vector 87  BasicTopology.peer[43].bitTorrentApp.bitTorrentClient  DownloadComplete_Test:vector  ETV
attr source BitTorrentClient_DownloadComplete_Test
attr title "Descargas completas (prueba), vector"
87	45233 67 195 230314917 36001 36191.560697331277 2 36001 36191.560697331 72192.560697331 2605901066.7086
vector 89  BasicTopology.peer[44].bitTorrentApp.bitTorrentClient  DownloadComplete_Test:vector  ETV
attr source BitTorrentClient_DownloadComplete_Test
attr title "Descargas completas (prueba), vector"
89	45300 67 196 207876718 36001 36164.861364918225 2 36001 36164.861364918 72165.861364918 2603969198.5437
vector 91  BasicTopology.peer[45].bitTorrentApp.bitTorrentClient  DownloadComplete_Test:vector  ETV
attr source BitTorrentClient_DownloadComplete_Test
attr title "Descargas completas (prueba), vector"
91	45367 67 197 241543078 36001 36209.025277143599 2 36001 36209.025277144 72210.025277144 2607165512.5209
vector 93  BasicTopology.peer[46].bitTorrentApp.bitTorrentClient  DownloadComplete_Test:vector  ETV
attr source BitTorrentClient_DownloadComplete_Test
attr title "Descargas completas (prueba), vector"
93	45434 67 198 231076379 36001 36192.699012112423 2 36001 36192.699012112 72193.699012112 2605983462.7813
vector 95  BasicTopology.peer[47].bitTorrentApp.bitTorrentClient  DownloadComplete_Test:vector  ETV
attr source BitTorrentClient_DownloadComplete_Test
attr title "Descargas completas (prueba), vector"
95	45501 67 199 230430193 36001 36191.742734084196 2 36001 36191.742734084 72192.742734084 2605914243.1301
vector 97  BasicTopology.peer[48].bitTorrentApp.bitTorrentClient  DownloadComplete_Test:vector  ETV
attr source BitTorrentClient_DownloadComplete_Test
attr title "Descargas completas (prueba), vector"
97	45568 66 200 248984493 36001 36303.63065822746 2 36001 36303.630658227 72304.630658227 2614025599.969
vector 99  BasicTopology.peer[49].bitTorrentApp.bitTorrentClient  DownloadComplete_Test:vector  ETV
attr source BitTorrentClient_DownloadComplete_Test
attr title "Descargas completas (prueba), vector"
99	45634 67 201 242048993 36001 36209.946969938817 2 36001 36209.946969939 72210.946969939 2607232260.5658
vector 1633  BasicTopology.peer[0].bitTorrentApp.bitTorrentClient.contentManager_51  TotalBytesUploaded:vector  ETV
attr source ContentManager_TotalBytesUploaded
attr title "Total of Bytes Uploaded, vector"
attr unit B
1633	45701 22252 961372 242115143 36002.046086113564 36210.027015109255 546 16384 8945664 2446639104 1.460456948079e+16
vector 1672  BasicTopology.peer[5].bitTorrentApp.bitTorrentClient.contentManager_51  TotalBytesDownloaded:vector  ETV
attr source ContentManager_TotalBytesDownloaded
attr title "Total of Bytes Downloaded, vector"
attr unit B
1672	152147 7841 1561171 209017486 36002.808089992925 36166.146408486257 192 16384 3145728 303562752 6.3827508985856e+14
vector 1671  BasicTopology.peer[5].bitTorrentApp.bitTorrentClient.contentManager_51  PiecesDownloaded:vector  ETV
attr source ContentManager_PieceDownloaded
attr title "Pieces Downloaded, vector"
1671	151284 863 1943893 209017486 36003.274408364595 36166.146408486257 24 0 23 276 4324
vector 1673  BasicTopology.peer[5].bitTorrentApp.bitTorrentClient.contentManager_51  TotalBytesUploaded:vector  ETV
attr source ContentManager_TotalBytesUploaded
attr title "Total of Bytes Uploaded, vector"
attr unit B
1673	159988 14551 1974651 230237787 36003.327752475881 36191.443611453719 357 16384 5849088 1046986752 4.088329708503e+15
vector 1712  BasicTopology.peer[10].bitTorrentApp.bitTorrentClient.contentManager_51  TotalBytesDownloaded:vector  ETV
attr source ContentManager_TotalBytesDownloaded
attr title "Total of Bytes Downloaded, vector"
attr unit B
1712	245377 8783 2038849 207822467 36003.946308168795 36164.812671300433 216 16384 3538944 383975424 9.0800869972378e+14
vector 1952  BasicTopology.peer[40].bitTorrentApp.bitTorrentClient.contentManager_51  TotalBytesDownloaded:vector  ETV
attr source ContentManager_TotalBytesDownloaded
attr title "Total of Bytes Downloaded, vector"
attr unit B
1952	747147 7791 2328284 220935828 36004.107118532394 36179.368060993245 192 16384 3145728 303562752 6.3827508985856e+14
vector 1792  BasicTopology.peer[20].bitTorrentApp.bitTorrentClient.contentManager_51  TotalBytesDownloaded:vector  ETV
attr source ContentManager_TotalBytesDownloaded
attr title "Total of Bytes Downloaded, vector"
attr unit B
1792	413634 9322 2545441 236055724 36004.287711327433 36199.842978183999 228 16384 3735552 427720704 1.0675178795172e+15
vector 1744  BasicTopology.peer[14].bitTorrentApp.bitTorrentClient.contentManager_51  TotalBytesDownloaded:vector  ETV
attr source ContentManager_TotalBytesDownloaded
attr title "Total of Bytes Downloaded, vector"
attr unit B
1744	315145 7886 2887207 222845039 36004.623256697697 36181.61223822218 192 16384 3145728 303562752 6.3827508985856e+14
vector 1776  BasicTopology.peer[18].bitTorrentApp.bitTorrentClient.contentManager_51  TotalBytesDownloaded:vector  ETV
attr source ContentManager_TotalBytesDownloaded
attr title "Total of Bytes Downloaded, vector"
attr unit B
1776	382532 7875 2939770 236881353 36004.658603635529 36201.017670152472 192 16384 3145728 303562752 6.3827508985856e+14
vector 1696  BasicTopology.peer[8].bitTorrentApp.bitTorrentClient.contentManager_51  TotalBytesDownloaded:vector  ETV
attr source ContentManager_TotalBytesDownloaded
attr title "Total of Bytes Downloaded, vector"
attr unit B
1696	214151 7858 3127125 207235655 36004.984097066826 36164.082970055795 192 16384 3145728 303562752 6.3827508985856e+14
vector 1711  BasicTopology.peer[10].bitTorrentApp.bitTorrentClient.contentManager_51  PiecesDownloaded:vector  ETV
attr source ContentManager_PieceDownloaded
attr title "Pieces Downloaded, vector"
1711	244525 852 3363303 207822467 36005.213637208836 36164.812671300433 24 0 23 276 4324
vector 1713  BasicTopology.peer[10].bitTorrentApp.bitTorrentClient.contentManager_51  TotalBytesUploaded:vector  ETV
attr source ContentManager_TotalBytesUploaded
attr title "Total of Bytes Uploaded, vector"
attr unit B
1713	254160 11813 3414040 196913440 36005.275718328505 36153.678916823568 291 16384 4767744 696090624 2.2163228469494e+15
vector 1736  BasicTopology.peer[13].bitTorrentApp.bitTorrentClient.contentManager_51  TotalBytesDownloaded:vector  ETV
attr source ContentManager_TotalBytesDownloaded
attr title "Total of Bytes Downloaded, vector"
attr unit B
1736	299224 8147 3467920 237764573 36005.348545506286 36202.312691652367 198 16384 3244032 322781184 6.9983780890214e+14
vector 1695  BasicTopology.peer[8].bitTorrentApp.bitTorrentClient.contentManager_51  PiecesDownloaded:vector  ETV
attr source ContentManager_PieceDownloaded
attr title "Pieces Downloaded, vector"
1695	213286 865 3486095 207235655 36005.373557319401 36164.082970055795 24 0 23 276 4324
vector 1697  BasicTopology.peer[8].bitTorrentApp.bitTorrentClient.contentManager_51  TotalBytesUploaded:vector  ETV
attr source ContentManager_TotalBytesUploaded
attr title "Total of Bytes Uploaded, vector"
attr unit B
1697	222009 8730 3532647 210767864 36005.416606704017 36167.928151988287 215 16384 3522560 380436480 8.9548457508864e+14
vector 1791  BasicTopology.peer[20].bitTorrentApp.bitTorrentClient.contentManager_51  PiecesDownloaded:vector  ETV
attr source ContentManager_PieceDownloaded
attr title "Pieces Downloaded, vector"
1791	412779 855 3834963 236055724 36005.744885020869 36199.842978183999 24 0 23 276 4324
vector 1951  BasicTopology.peer[40].bitTorrentApp.bitTorrentClient.contentManager_51  PiecesDownloaded:vector  ETV
attr source ContentManager_PieceDownloaded
attr title "Pieces Downloaded, vector"
1951	746293 854 3860718 220935828 36005.770356663527 36179.368060993245 24 0 23 276 4324
vector 1793  BasicTopology.peer[20].bitTorrentApp.bitTorrentClient.contentManager_51  TotalBytesUploaded:vector  ETV
attr source ContentManager_TotalBytesUploaded
attr title "Total of Bytes Uploaded, vector"
attr unit B
1793	422956 12477 3916776 244483053 36005.810811372378 36214.923949914554 306 16384 5013504 769572864 2.5763739819049e+15
vector 1953  BasicTopology.peer[40].bitTorrentApp.bitTorrentClient.contentManager_51  TotalBytesUploaded:vector  ETV
attr source ContentManager_TotalBytesUploaded
attr title "Total of Bytes Uploaded, vector"
attr unit B
1953	754938 13237 3921236 200575267 36005.816373826414 36157.352648899314 324 16384 5308416 862617600 3.0574664220672e+15
vector 1743  BasicTopology.peer[14].bitTorrentApp.bitTorrentClient.contentManager_51  PiecesDownloaded:vector  ETV
attr source ContentManager_PieceDownloaded
attr title "Pieces Downloaded, vector"
1743	314277 868 4034309 222845039 36005.925036535586 36181.61223822218 24 0 23 276 4324
vector 1976  BasicTopology.peer[43].bitTorrentApp.bitTorrentClient.contentManager_51  TotalBytesDownloaded:vector  ETV
attr source ContentManager_TotalBytesDownloaded
attr title "Total of Bytes Downloaded, vector"
attr unit B
1976	810264 7848 4053528 230314917 36005.95694422165 36191.560697331277 192 16384 3145728 303562752 6.3827508985856e+14
vector 1944  BasicTopology.peer[39].bitTorrentApp.bitTorrentClient.contentManager_51  TotalBytesDownloaded:vector  ETV
attr source ContentManager_TotalBytesDownloaded
attr title "Total of Bytes Downloaded, vector"
attr unit B
1944	733642 8326 4284376 215497400 36006.175521964466 36173.212039031035 202 16384 3309568 335921152 7.4300384083968e+14
vector 1975  BasicTopology.peer[43].bitTorrentApp.bitTorrentClient.contentManager_51  PiecesDownloaded:vector  ETV
attr source ContentManager_PieceDownloaded
attr title "Pieces Downloaded, vector"
1975	809401 863 4386492 230314917 36006.299142939197 36191.560697331277 24 0 23 276 4324
vector 1977  BasicTopology.peer[43].bitTorrentApp.bitTorrentClient.contentManager_51  TotalBytesUploaded:vector  ETV
attr source ContentManager_TotalBytesUploaded
attr title "Total of Bytes Uploaded, vector"
attr unit B
1977	818112 11163 4433056 213134071 36006.378398104692 36170.594150359807 273 16384 4472832 612777984 1.8305819019837e+15
vector 1816  BasicTopology.peer[23].bitTorrentApp.bitTorrentClient.contentManager_51  TotalBytesDownloaded:vector  ETV
attr source ContentManager_TotalBytesDownloaded
attr title "Total of Bytes Downloaded, vector"
attr unit B
1816	467054 8595 4508053 232905258 36006.465392887016 36195.540863952052 210 16384 3440640 362987520 8.3458864971776e+14
vector 1872  BasicTopology.peer[30].bitTorrentApp.bitTorrentClient.contentManager_51  TotalBytesDownloaded:vector  ETV
attr source ContentManager_TotalBytesDownloaded
attr title "Total of Bytes Downloaded, vector"
attr unit B
1872	585588 8144 4658356 230092765 36006.67851028157 36191.24381548811 200 16384 3276800 329318400 7.212055396352e+14
vector 1680  BasicTopology.peer[6].bitTorrentApp.bitTorrentClient.contentManager_51  TotalBytesDownloaded:vector  ETV
attr source ContentManager_TotalBytesDownloaded
attr title "Total of Bytes Downloaded, vector"
attr unit B
1680	175406 9283 4688019 203364016 36006.734981300818 36160.262140467984 226 16384 3702784 420265984 1.0397313201603e+15
vector 1648  BasicTopology.peer[2].bitTorrentApp.bitTorrentClient.contentManager_51  TotalBytesDownloaded:vector  ETV
attr source ContentManager_TotalBytesDownloaded
attr title "Total of Bytes Downloaded, vector"
attr unit B
1648	102011 8296 4690822 208444484 36006.738651438574 36165.468310819093 202 16384 3309568 335921152 7.4300384083968e+14
vector 1768  BasicTopology.peer[17].bitTorrentApp.bitTorrentClient.contentManager_51  TotalBytesDownloaded:vector  ETV
attr source ContentManager_TotalBytesDownloaded
attr title "Total of Bytes Downloaded, vector"
attr unit B
1768	364996 7899 4807222 238614371 36006.885184270634 36203.83572645142 192 16384 3145728 303562752 6.3827508985856e+14
vector 1871  BasicTopology.peer[30].bitTorrentApp.bitTorrentClient.contentManager_51  PiecesDownloaded:vector  ETV
attr source ContentManager_PieceDownloaded
attr title "Pieces Downloaded, vector"
1871	584731 857 4904280 206421175 36006.993911629737 36163.325384925756 24 0 23 276 4324
vector 1936  BasicTopology.peer[38].bitTorrentApp.bitTorrentClient.contentManager_51  TotalBytesDownloaded:vector  ETV
attr source ContentManager_TotalBytesDownloaded
attr title "Total of Bytes Downloaded, vector"
attr unit B
1936	719168 8445 5010316 220307983 36007.058860849364 36178.710314701913 205 16384 3358720 345948160 7.7651800752128e+14
vector 1745  BasicTopology.peer[14].bitTorrentApp.bitTorrentClient.contentManager_51  TotalBytesUploaded:vector  ETV
attr source ContentManager_TotalBytesUploaded
attr title "Total of Bytes Uploaded, vector"
attr unit B
1745	323031 6375 5070402 203192338 36007.095928906238 36160.051321944532 157 16384 2572288 203210752 3.4958752088064e+14
vector 1873  BasicTopology.peer[30].bitTorrentApp.bitTorrentClient.contentManager_51  TotalBytesUploaded:vector  ETV
attr source ContentManager_TotalBytesUploaded
attr title "Total of Bytes Uploaded, vector"
attr unit B
1873	593732 15504 5072761 168040226 36007.097487972398 36126.893261498653 379 16384 6209536 1179811840 4.8904994081997e+15
vector 1984  BasicTopology.peer[44].bitTorrentApp.bitTorrentClient.contentManager_51  TotalBytesDownloaded:vector  ETV
attr source ContentManager_TotalBytesDownloaded
attr title "Total of Bytes Downloaded, vector"
attr unit B
1984	830137 8281 5187824 207876718 36007.186646638734 36164.861364918225 202 16384 3309568 335921152 7.4300384083968e+14
vector 1840  BasicTopology.peer[26].bitTorrentApp.bitTorrentClient.contentManager_51  TotalBytesDownloaded:vector  ETV
attr source ContentManager_TotalBytesDownloaded
attr title "Total of Bytes Downloaded, vector"
attr unit B
1840	518320 8881 5196788 231453507 36007.195649099031 36193.238634875361 216 16384 3538944 383975424 9.0800869972378e+14
vector 1640  BasicTopology.peer[1].bitTorrentApp.bitTorrentClient.contentManager_51  TotalBytesDownloaded:vector  ETV
attr source ContentManager_TotalBytesDownloaded
attr title "Total of Bytes Downloaded, vector"
attr unit B
1640	68805 7766 5215254 95549810 36007.212085527351 36072.458521800328 192 16384 3145728 303562752 6.3827508985856e+14
vector 1848  BasicTopology.peer[27].bitTorrentApp.bitTorrentClient.contentManager_51  TotalBytesDownloaded:vector  ETV
attr source ContentManager_TotalBytesDownloaded
attr title "Total of Bytes Downloaded, vector"
attr unit B
1848	533894 9310 5334947 244300637 36007.325651320459 36214.329971062548 226 16384 3702784 420265984 1.0397313201603e+15
vector 1704  BasicTopology.peer[9].bitTorrentApp.bitTorrentClient.contentManager_51  TotalBytesDownloaded:vector  ETV
attr source ContentManager_TotalBytesDownloaded
attr title "Total of Bytes Downloaded, vector"
attr unit B
1704	231602 9603 5517400 228320102 36007.537971350183 36188.568867727714 233 16384 3817472 446644224 1.1391404857098e+15
vector 1735  BasicTopology.peer[13].bitTorrentApp.bitTorrentClient.contentManager_51  PiecesDownloaded:vector  ETV
attr source ContentManager_PieceDownloaded
attr title "Pieces Downloaded, vector"
1735	298356 868 5778378 237523627 36007.766629283192 36201.964771610112 24 0 23 276 4324
vector 1737  BasicTopology.peer[13].bitTorrentApp.bitTorrentClient.contentManager_51  TotalBytesUploaded:vector  ETV
attr source ContentManager_TotalBytesUploaded
attr title "Total of Bytes Uploaded, vector"
attr unit B
1737	307371 6906 5807287 232159635 36007.796052717705 36194.415246576283 170 16384 2785280 238141440 4.4349429645312e+14
vector 1815  BasicTopology.peer[23].bitTorrentApp.bitTorrentClient.contentManager_51  PiecesDownloaded:vector  ETV
attr source ContentManager_PieceDownloaded
attr title "Pieces Downloaded, vector"
1815	466194 860 5822217 232905258 36007.812086245371 36195.540863952052 24 0 23 276 4324
vector 1817  BasicTopology.peer[23].bitTorrentApp.bitTorrentClient.contentManager_51  TotalBytesUploaded:vector  ETV
attr source ContentManager_TotalBytesUploaded
attr title "Total of Bytes Uploaded, vector"
attr unit B
1817	475649 7144 5838871 244497874 36007.828477927494 36214.967102193441 176 16384 2883584 255197184 4.9198206130586e+14
vector 1760  BasicTopology.peer[16].bitTorrentApp.bitTorrentClient.contentManager_51  TotalBytesDownloaded:vector  ETV
attr source ContentManager_TotalBytesDownloaded
attr title "Total of Bytes Downloaded, vector"
attr unit B
1760	344677 9137 5973739 240521082 36007.965774415864 36206.974102858245 222 16384 3637248 405553152 9.8561312161792e+14
vector 1896  BasicTopology.peer[33].bitTorrentApp.bitTorrentClient.contentManager_51  TotalBytesDownloaded:vector  ETV
attr source ContentManager_TotalBytesDownloaded
attr title "Total of Bytes Downloaded, vector"
attr unit B