file 909438 1593887688                                          
version 2
run Test-22-20200526-20:45:01-4461
attr configname Test
attr datetime 20200526-20:45:01
attr experiment "\"Simulation Test\""
attr inifile BasicConfig.ini
attr iterationvars ""
attr iterationvars2 $repetition=22
attr measurement "\"Peers: $peers, Rate: $rate\""
attr network BasicTopology
attr processid 4461
attr repetition 22
attr replication #22
attr resultdir results
attr runnumber 22
attr seedset 22
vector 3  BasicTopology.peer[1].bitTorrentApp.bitTorrentClient  DownloadComplete_Test:vector  ETV
attr source BitTorrentClient_DownloadComplete_Test
attr title "Descargas completas (prueba), vector"
3	42445 65 153 142204691 36001 36111.785532788857 2 36001 36111.785532789 72112.785532789 2600133055.3661
vector 5  BasicTopology.peer[2].bitTorrentApp.bitTorrentClient  DownloadComplete_Test:vector  ETV
attr source BitTorrentClient_DownloadComplete_Test
attr title "Descargas completas (prueba), vector"
5	42510 65 154 214770788 36001 36182.100295302717 2 36001 36182.100295303 72183.100295303 2605216382.7794
vector 7  BasicTopology.peer[3].bitTorrentApp.bitTorrentClient  DownloadComplete_Test:vector  ETV
attr source BitTorrentClient_DownloadComplete_Test
attr title "Descargas completas (prueba), vector"
7	42575 65 155 238956788 36001 36302.601357864043 2 36001 36302.601357864 72303.601357864 2613950866.348
vector 9  BasicTopology.peer[4].bitTorrentApp.bitTorrentClient  DownloadComplete_Test:vector  ETV
attr source BitTorrentClient_DownloadComplete_Test
attr title "Descargas completas (prueba), vector"
9	42640 65 156 197598433 36001 36163.328732544769 2 36001 36163.328732545 72164.328732545 2603858346.0181
vector 11  BasicTopology.peer[5].bitTorrentApp.bitTorrentClient  DownloadComplete_Test:vector  ETV
attr source BitTorrentClient_DownloadComplete_Test
attr title "Descargas completas (prueba), vector"
11	42705 67 157 190275121 36001 36155.653889449071 2 36001 36155.653889449 72156.653889449 2603303309.1736
vector 13  BasicTopology.peer[6].bitTorrentApp.bitTorrentClient  DownloadComplete_Test:vector  ETV
attr source BitTorrentClient_DownloadComplete_Test
attr title "Descargas completas (prueba), vector"
13	42772 67 158 227947138 36001 36200.161758619097 2 36001 36200.161758619 72201.161758619 2606523712.3502
vector 15  BasicTopology.peer[7].bitTorrentApp.bitTorrentClient  DownloadComplete_Test:vector  ETV
attr source BitTorrentClient_DownloadComplete_Test
attr title "Descargas completas (prueba), vector"
15	42839 67 159 234685078 36001 36232.088837701004 2 36001 36232.088837701 72233.088837701 2608836262.5431
vector 17  BasicTopology.peer[8].bitTorrentApp.bitTorrentClient  DownloadComplete_Test:vector  ETV
attr source BitTorrentClient_DownloadComplete_Test
attr title "Descargas completas (prueba), vector"
17	42906 66 160 224107965 36001 36194.019109939894 2 36001 36194.01910994 72195.01910994 2606079020.3307
vector 19  BasicTopology.peer[9].bitTorrentApp.bitTorrentClient  DownloadComplete_Test:vector  ETV
attr source BitTorrentClient_DownloadComplete_Test
attr title "Descargas completas (prueba), vector"
19	42972 67 161 220922045 36001 36189.555503212805 2 36001 36189.555503213 72190.555503213 2605755928.5201
vector 21  BasicTopology.peer[10].bitTorrentApp.bitTorrentClient  DownloadComplete_Test:vector  ETV
attr source BitTorrentClient_DownloadComplete_Test
attr title "Descargas completas (prueba), vector"
21	43039 66 162 38228072 36001 36035.825152931776 2 36001 36035.825152932 72036.825152932 2594652695.4527
vector 23  BasicTopology.peer[11].bitTorrentApp.bitTorrentClient  DownloadComplete_Test:vector  ETV
attr source BitTorrentClient_DownloadComplete_Test
attr title "Descargas completas (prueba), vector"
23	43105 67 163 215204336 36001 36182.616615478892 2 36001 36182.616615479 72183.616615479 2605253746.1427
vector 25  BasicTopology.peer[12].bitTorrentApp.bitTorrentClient  DownloadComplete_Test:vector  ETV
attr source BitTorrentClient_DownloadComplete_Test
attr title "Descargas completas (prueba), vector"
25	43172 67 164 206293674 36001 36172.756118870985 2 36001 36172.756118871 72173.756118871 2604540286.2353
vector 27  BasicTopology.peer[13].bitTorrentApp.bitTorrentClient  DownloadComplete_Test:vector  ETV
attr source BitTorrentClient_DownloadComplete_Test
attr title "Descargas completas (prueba), vector"
27	43239 67 165 232277771 36001 36210.887155850695 2 36001 36210.887155851 72211.887155851 2607300349.6138
vector 29  BasicTopology.peer[14].bitTorrentApp.bitTorrentClient  DownloadComplete_Test:vector  ETV
attr source BitTorrentClient_DownloadComplete_Test
attr title "Descargas completas (prueba), vector"
29	43306 67 166 213068782 36001 36180.289678436259 2 36001 36180.289678436 72181.289678436 2605085362.2155
vector 31  BasicTopology.peer[15].bitTorrentApp.bitTorrentClient  DownloadComplete_Test:vector  ETV
attr source BitTorrentClient_DownloadComplete_Test
attr title "Descargas completas (prueba), vector"
31	43373 67 167 207157974 36001 36173.737288348748 2 36001 36173.737288349 72174.737288349 2604611270.4065
vector 33  BasicTopology.peer[16].bitTorrentApp.bitTorrentClient  DownloadComplete_Test:vector  ETV
attr source BitTorrentClient_DownloadComplete_Test
attr title "Descargas completas (prueba), vector"
33	43440 67 168 204575443 36001 36170.941914091355 2 36001 36170.941914091 72171.941914091 2604409039.9525
vector 35  BasicTopology.peer[17].bitTorrentApp.bitTorrentClient  DownloadComplete_Test:vector  ETV
attr source BitTorrentClient_DownloadComplete_Test
attr title "Descargas completas (prueba), vector"
35	43507 66 169 198453562 36001 36164.30762798732 2 36001 36164.307627987 72165.307627987 2603929147.2117
vector 37  BasicTopology.peer[18].bitTorrentApp.bitTorrentClient  DownloadComplete_Test:vector  ETV
attr source BitTorrentClient_DownloadComplete_Test
attr title "Descargas completas (prueba), vector"
37	43573 66 170 217874210 36001 36185.61710491379 2 36001 36185.617104914 72186.617104914 2605470886.2634
vector 39  BasicTopology.peer[19].bitTorrentApp.bitTorrentClient  DownloadComplete_Test:vector  ETV
attr source BitTorrentClient_DownloadComplete_Test
attr title "Descargas completas (prueba), vector"
39	43639 67 171 198226031 36001 36164.076884581864 2 36001 36164.076884582 72165.076884582 2603912457.914
vector 41  BasicTopology.peer[20].bitTorrentApp.bitTorrentClient  DownloadComplete_Test:vector  ETV
attr source BitTorrentClient_DownloadComplete_Test
attr title "Descargas completas (prueba), vector"
41	43706 67 172 234163671 36001 36230.151834318165 2 36001 36230.151834318 72231.151834318 2608695902.9377
vector 43  BasicTopology.peer[21].bitTorrentApp.bitTorrentClient  DownloadComplete_Test:vector  ETV
attr source BitTorrentClient_DownloadComplete_Test
attr title "Descargas completas (prueba), vector"
43	43773 67 173 229466562 36001 36203.989996957954 2 36001 36203.989996958 72204.989996958 2606800892.6998
vector 45  BasicTopology.peer[22].bitTorrentApp.bitTorrentClient  DownloadComplete_Test:vector  ETV
attr source BitTorrentClient_DownloadComplete_Test
attr title "Descargas completas (prueba), vector"
45	43840 67 174 234898850 36001 36233.187471605779 2 36001 36233.187471606 72234.187471606 2608915875.3525
vector 47  BasicTopology.peer[23].bitTorrentApp.bitTorrentClient  DownloadComplete_Test:vector  ETV
attr source BitTorrentClient_DownloadComplete_Test
attr title "Descargas completas (prueba), vector"
47	43907 67 175 215353698 36001 36182.784243062979 2 36001 36182.784243063 72183.784243063 2605265876.58
vector 49  BasicTopology.peer[24].bitTorrentApp.bitTorrentClient  DownloadComplete_Test:vector  ETV
attr source BitTorrentClient_DownloadComplete_Test
attr title "Descargas completas (prueba), vector"
49	43974 67 176 232925078 36001 36213.123018454593 2 36001 36213.123018455 72214.123018455 2607462279.7498
vector 51  BasicTopology.peer[25].bitTorrentApp.bitTorrentClient  DownloadComplete_Test:vector  ETV
attr source BitTorrentClient_DownloadComplete_Test
attr title "Descargas completas (prueba), vector"
51	44041 67 177 209513586 36001 36176.257640347503 2 36001 36176.257640348 72177.257640348 2604793617.8608
vector 53  BasicTopology.peer[26].bitTorrentApp.bitTorrentClient  DownloadComplete_Test:vector  ETV
attr source BitTorrentClient_DownloadComplete_Test
attr title "Descargas completas (prueba), vector"
53	44108 67 178 235950400 36001 36236.563397007459 2 36001 36236.563397007 72237.563397007 2609160527.8253
vector 55  BasicTopology.peer[27].bitTorrentApp.bitTorrentClient  DownloadComplete_Test:vector  ETV
attr source BitTorrentClient_DownloadComplete_Test
attr title "Descargas completas (prueba), vector"
55	44175 67 179 209470868 36001 36176.192227575308 2 36001 36176.192227575 72177.192227575 2604788885.0865
vector 57  BasicTopology.peer[28].bitTorrentApp.bitTorrentClient  DownloadComplete_Test:vector  ETV
attr source BitTorrentClient_DownloadComplete_Test
attr title "Descargas completas (prueba), vector"
57	44242 66 180 234980814 36001 36233.368963270006 2 36001 36233.36896327 72234.36896327 2608929027.4285
vector 59  BasicTopology.peer[29].bitTorrentApp.bitTorrentClient  DownloadComplete_Test:vector  ETV
attr source BitTorrentClient_DownloadComplete_Test
attr title "Descargas completas (prueba), vector"
59	44308 67 181 215475049 36001 36182.898351216492 2 36001 36182.898351216 72183.898351216 2605274134.0944
vector 61  BasicTopology.peer[30].bitTorrentApp.bitTorrentClient  DownloadComplete_Test:vector  ETV
attr source BitTorrentClient_DownloadComplete_Test
attr title "Descargas completas (prueba), vector"
61	44375 67 182 200750717 36001 36166.717782427474 2 36001 36166.717782427 72167.717782427 2604103476.1537
vector 63  BasicTopology.peer[31].bitTorrentApp.bitTorrentClient  DownloadComplete_Test:vector  ETV
attr source BitTorrentClient_DownloadComplete_Test
attr title "Descargas completas (prueba), vector"
63	44442 67 183 234062119 36001 36229.330875614297 2 36001 36229.330875614 72230.330875614 2608636416.6947
vector 65  BasicTopology.peer[32].bitTorrentApp.bitTorrentClient  DownloadComplete_Test:vector  ETV
attr source BitTorrentClient_DownloadComplete_Test
attr title "Descargas completas (prueba), vector"
65	44509 67 184 235437830 36001 36235.598203883447 2 36001 36235.598203883 72236.598203883 2609090578.1932
vector 67  BasicTopology.peer[33].bitTorrentApp.bitTorrentClient  DownloadComplete_Test:vector  ETV
attr source BitTorrentClient_DownloadComplete_Test
attr title "Descargas completas (prueba), vector"
67	44576 66 185 218544182 36001 36186.485691250375 2 36001 36186.48569125 72187.48569125 2605533747.683
vector 69  BasicTopology.peer[34].bitTorrentApp.bitTorrentClient  DownloadComplete_Test:vector  ETV
attr source BitTorrentClient_DownloadComplete_Test
attr title "Descargas completas (prueba), vector"
69	44642 66 186 238903938 36001 36302.454044250294 2 36001 36302.45404425 72303.45404425 2613940170.6349
vector 71  BasicTopology.peer[35].bitTorrentApp.bitTorrentClient  DownloadComplete_Test:vector  ETV
attr source BitTorrentClient_DownloadComplete_Test
attr title "Descargas completas (prueba), vector"
71	44708 67 187 228718804 36001 36201.859984315118 2 36001 36201.859984315 72202.859984315 2606646667.3239
vector 73  BasicTopology.peer[36].bitTorrentApp.bitTorrentClient  DownloadComplete_Test:vector  ETV
attr source BitTorrentClient_DownloadComplete_Test
attr title "Descargas completas (prueba), vector"
73	44775 67 188 234531549 36001 36231.777692226265 2 36001 36231.777692226 72232.777692226 2608813715.7389
vector 75  BasicTopology.peer[37].bitTorrentApp.bitTorrentClient  DownloadComplete_Test:vector  ETV
attr source BitTorrentClient_DownloadComplete_Test
attr title "Descargas completas (prueba), vector"
75	44842 67 189 213669249 36001 36180.964323818962 2 36001 36180.964323819 72181.964323819 2605134180.4015
vector 77  BasicTopology.peer[38].bitTorrentApp.bitTorrentClient  DownloadComplete_Test:vector  ETV
attr source BitTorrentClient_DownloadComplete_Test
attr title "Descargas completas (prueba), vector"
77	44909 66 190 236289367 36001 36238.07068745514 2 36001 36238.070687455 72239.070687455 2609269768.149
vector 79  BasicTopology.peer[39].bitTorrentApp.bitTorrentClient  DownloadComplete_Test:vector  ETV
attr source BitTorrentClient_DownloadComplete_Test
attr title "Descargas completas (prueba), vector"
79	44975 67 191 198397752 36001 36164.266359358461 2 36001 36164.266359358 72165.266359358 2603926162.3106
vector 81  BasicTopology.peer[40].bitTorrentApp.bitTorrentClient  DownloadComplete_Test:vector  ETV
attr source BitTorrentClient_DownloadComplete_Test
attr title "Descargas completas (prueba), vector"
81	45042 67 192 210423569 36001 36177.147938519129 2 36001 36177.147938519 72178.147938519 2604858033.9655
vector 83  BasicTopology.peer[41].bitTorrentApp.bitTorrentClient  DownloadComplete_Test:vector  ETV
attr source BitTorrentClient_DownloadComplete_Test
attr title "Descargas completas (prueba), vector"
83	45109 67 193 218916033 36001 36187.054636205671 2 36001 36187.054636206 72188.054636206 2605574924.2438
vector 85  BasicTopology.peer[42].bitTorrentApp.bitTorrentClient  DownloadComplete_Test:vector  ETV
attr source BitTorrentClient_DownloadComplete_Test
attr title "Descargas completas (prueba), vector"
85	45176 67 194 224671721 36001 36194.894013771124 2 36001 36194.894013771 72195.894013771 2606142353.6681
vector 87  BasicTopology.peer[43].bitTorrentApp.bitTorrentClient  DownloadComplete_Test:vector  ETV
attr source BitTorrentClient_DownloadComplete_Test
attr title "Descargas completas (prueba), vector"
87	45243 67 195 207478008 36001 36174.052581548178 2 36001 36174.052581548 72175.052581548 2604634081.1726
vector 89  BasicTopology.peer[44].bitTorrentApp.bitTorrentClient  DownloadComplete_Test:vector  ETV
attr source BitTorrentClient_DownloadComplete_Test
attr title "Descargas completas (prueba), vector"
89	45310 67 196 218792430 36001 36186.888916852674 2 36001 36186.888916853 72187.888916853 2605562930.4807
vector 91  BasicTopology.peer[45].bitTorrentApp.bitTorrentClient  DownloadComplete_Test:vector  ETV
attr source BitTorrentClient_DownloadComplete_Test
attr title "Descargas completas (prueba), vector"
91	45377 67 197 221758953 36001 36190.604339449047 2 36001 36190.604339449 72191.604339449 2605831843.4545
vector 93  BasicTopology.peer[46].bitTorrentApp.bitTorrentClient  DownloadComplete_Test:vector  ETV
attr source BitTorrentClient_DownloadComplete_Test
attr title "Descargas completas (prueba), vector"
93	45444 67 198 229675324 36001 36204.324573617381 2 36001 36204.324573617 72205.324573617 2606825118.8318
vector 95  BasicTopology.peer[47].bitTorrentApp.bitTorrentClient  DownloadComplete_Test:vector  ETV
attr source BitTorrentClient_DownloadComplete_Test
attr title "Descargas completas (prueba), vector"
95	45511 66 199 231600411 36001 36209.509162470009 2 36001 36209.50916247 72210.50916247 2607200554.787
vector 97  BasicTopology.peer[48].bitTorrentApp.bitTorrentClient  DownloadComplete_Test:vector  ETV
attr source BitTorrentClient_DownloadComplete_Test
attr title "Descargas completas (prueba), vector"
97	45577 67 200 228620408 36001 36201.461041701259 2 36001 36201.461041701 72202.461041701 2606617782.5538
vector 99  BasicTopology.peer[49].bitTorrentApp.bitTorrentClient  DownloadComplete_Test:vector  ETV
attr source BitTorrentClient_DownloadComplete_Test
attr title "Descargas completas (prueba), vector"
99	45644 67 201 232991805 36001 36213.575277986095 2 36001 36213.575277986 72214.575277986 2607495035.4144
vector 1633  BasicTopology.peer[0].bitTorrentApp.bitTorrentClient.contentManager_51  TotalBytesUploaded:vector  ETV
attr source ContentManager_TotalBytesUploaded
attr title "Total of Bytes Uploaded, vector"
attr unit B
1633	45711 19252 502137 227711590 36001.21653550834 36199.488228016105 474 16384 7766016 1844428800 9.5593154215936e+15
vector 1800  BasicTopology.peer[21].bitTorrentApp.bitTorrentClient.contentManager_51  TotalBytesDownloaded:vector  ETV
attr source ContentManager_TotalBytesDownloaded
attr title "Total of Bytes Downloaded, vector"
attr unit B
1800	433684 7845 1489180 229466562 36002.629333617757 36203.989996957954 192 16384 3145728 303562752 6.3827508985856e+14
vector 1728  BasicTopology.peer[12].bitTorrentApp.bitTorrentClient.contentManager_51  TotalBytesDownloaded:vector  ETV
attr source ContentManager_TotalBytesDownloaded
attr title "Total of Bytes Downloaded, vector"
attr unit B
1728	277975 7836 1524701 206293674 36002.655298599118 36172.756118870985 192 16384 3145728 303562752 6.3827508985856e+14
vector 1799  BasicTopology.peer[21].bitTorrentApp.bitTorrentClient.contentManager_51  PiecesDownloaded:vector  ETV
attr source ContentManager_PieceDownloaded
attr title "Pieces Downloaded, vector"
1799	432819 865 1649566 229466562 36002.905871986524 36203.989996957954 24 0 23 276 4324
vector 1801  BasicTopology.peer[21].bitTorrentApp.bitTorrentClient.contentManager_51  TotalBytesUploaded:vector  ETV
attr source ContentManager_TotalBytesUploaded
attr title "Total of Bytes Uploaded, vector"
attr unit B
1801	441529 15102 1693949 232694046 36002.99686066374 36212.025707670367 371 16384 6078464 1130594304 4.5876924026716e+15
vector 1712  BasicTopology.peer[10].bitTorrentApp.bitTorrentClient.contentManager_51  TotalBytesDownloaded:vector  ETV
attr source ContentManager_TotalBytesDownloaded
attr title "Total of Bytes Downloaded, vector"
attr unit B
1712	240479 7708 1845335 38228072 36003.278921818328 36035.825152931776 192 16384 3145728 303562752 6.3827508985856e+14
vector 1711  BasicTopology.peer[10].bitTorrentApp.bitTorrentClient.contentManager_51  PiecesDownloaded:vector  ETV
attr source ContentManager_PieceDownloaded
attr title "Pieces Downloaded, vector"
1711	239637 842 1873929 38228072 36003.36008468478 36035.825152931776 24 0 23 276 4324
vector 1713  BasicTopology.peer[10].bitTorrentApp.bitTorrentClient.contentManager_51  TotalBytesUploaded:vector  ETV
attr source ContentManager_TotalBytesUploaded
attr title "Total of Bytes Uploaded, vector"
attr unit B
1713	248187 10223 1889126 217311835 36003.446149589866 36185.029347577802 252 16384 4128768 522289152 1.4404595535053e+15
vector 1960  BasicTopology.peer[41].bitTorrentApp.bitTorrentClient.contentManager_51  TotalBytesDownloaded:vector  ETV
attr source ContentManager_TotalBytesDownloaded
attr title "Total of Bytes Downloaded, vector"
attr unit B
1960	745978 8169 2440047 218916033 36004.400262051591 36187.054636205671 200 16384 3276800 329318400 7.212055396352e+14
vector 1872  BasicTopology.peer[30].bitTorrentApp.bitTorrentClient.contentManager_51  TotalBytesDownloaded:vector  ETV
attr source ContentManager_TotalBytesDownloaded
attr title "Total of Bytes Downloaded, vector"
attr unit B
1872	573740 8570 2485862 200750717 36004.486956657892 36166.717782427474 209 16384 3424256 359546880 8.2275064610816e+14
vector 1952  BasicTopology.peer[40].bitTorrentApp.bitTorrentClient.contentManager_51  TotalBytesDownloaded:vector  ETV
attr source ContentManager_TotalBytesDownloaded
attr title "Total of Bytes Downloaded, vector"
attr unit B
1952	722714 7823 2862414 210423569 36004.675242892346 36177.147938519129 192 16384 3145728 303562752 6.3827508985856e+14
vector 1951  BasicTopology.peer[40].bitTorrentApp.bitTorrentClient.contentManager_51  PiecesDownloaded:vector  ETV
attr source ContentManager_PieceDownloaded
attr title "Pieces Downloaded, vector"
1951	721857 857 3115332 210423569 36004.947114443939 36177.147938519129 24 0 23 276 4324
vector 1953  BasicTopology.peer[40].bitTorrentApp.bitTorrentClient.contentManager_51  TotalBytesUploaded:vector  ETV
attr source ContentManager_TotalBytesUploaded
attr title "Total of Bytes Uploaded, vector"
attr unit B
1953	730537 14580 3170442 211840428 36005.018315563224 36178.874244815037 356 16384 5832704 1041137664 4.0541178780713e+15
vector 1904  BasicTopology.peer[34].bitTorrentApp.bitTorrentClient.contentManager_51  TotalBytesDownloaded:vector  ETV
attr source ContentManager_TotalBytesDownloaded
attr title "Total of Bytes Downloaded, vector"
attr unit B
1904	639255 8058 3321702 238903938 36005.199776655696 36302.454044250294 196 16384 3211264 316309504 6.7889635367322e+14
vector 1688  BasicTopology.peer[7].bitTorrentApp.bitTorrentClient.contentManager_51  TotalBytesDownloaded:vector  ETV
attr source ContentManager_TotalBytesDownloaded
attr title "Total of Bytes Downloaded, vector"
attr unit B
1688	189359 8890 3326550 234685078 36005.20891420206 36232.088837701004 216 16384 3538944 383975424 9.0800869972378e+14
vector 2000  BasicTopology.peer[46].bitTorrentApp.bitTorrentClient.contentManager_51  TotalBytesDownloaded:vector  ETV
attr source ContentManager_TotalBytesDownloaded
attr title "Total of Bytes Downloaded, vector"
attr unit B
2000	846563 8287 3666890 229675324 36005.796182042714 36204.324573617381 202 16384 3309568 335921152 7.4300384083968e+14
vector 1727  BasicTopology.peer[12].bitTorrentApp.bitTorrentClient.contentManager_51  PiecesDownloaded:vector  ETV
attr source ContentManager_PieceDownloaded
attr title "Pieces Downloaded, vector"
1727	277116 859 3779765 206293674 36005.99405662213 36172.756118870985 24 0 23 276 4324
vector 1729  BasicTopology.peer[12].bitTorrentApp.bitTorrentClient.contentManager_51  TotalBytesUploaded:vector  ETV
attr source ContentManager_TotalBytesUploaded
attr title "Total of Bytes Uploaded, vector"
attr unit B
1729	285811 13705 3877539 223835574 36006.094144291216 36193.477907060424 336 16384 5505024 927596544 3.4093600719503e+15
vector 1999  BasicTopology.peer[46].bitTorrentApp.bitTorrentClient.contentManager_51  PiecesDownloaded:vector  ETV
attr source ContentManager_PieceDownloaded
attr title "Pieces Downloaded, vector"
1999	845700 863 3971140 229675324 36006.228711617918 36204.324573617381 24 0 23 276 4324
vector 2001  BasicTopology.peer[46].bitTorrentApp.bitTorrentClient.contentManager_51  TotalBytesUploaded:vector  ETV
attr source ContentManager_TotalBytesUploaded
attr title "Total of Bytes Uploaded, vector"
attr unit B
2001	854850 6322 4026406 194530265 36006.314260933006 36159.967948523264 156 16384 2555904 200638464 3.429708553257e+14
vector 1992  BasicTopology.peer[45].bitTorrentApp.bitTorrentClient.contentManager_51  TotalBytesDownloaded:vector  ETV
attr source ContentManager_TotalBytesDownloaded
attr title "Total of Bytes Downloaded, vector"
attr unit B
1992	826298 9055 4143817 228045995 36006.487006995421 36200.523217344422 220 16384 3604480 398295040 9.5927289249792e+14
vector 1648  BasicTopology.peer[2].bitTorrentApp.bitTorrentClient.contentManager_51  TotalBytesDownloaded:vector  ETV
attr source ContentManager_TotalBytesDownloaded
attr title "Total of Bytes Downloaded, vector"
attr unit B
1648	94217 7789 4235007 214770788 36006.629077902267 36182.100295302717 192 16384 3145728 303562752 6.3827508985856e+14
vector 1959  BasicTopology.peer[41].bitTorrentApp.bitTorrentClient.contentManager_51  PiecesDownloaded:vector  ETV
attr source ContentManager_PieceDownloaded
attr title "Pieces Downloaded, vector"
1959	745117 861 4339944 218916033 36006.794984933145 36187.054636205671 24 0 23 276 4324
vector 1768  BasicTopology.peer[17].bitTorrentApp.bitTorrentClient.contentManager_51  TotalBytesDownloaded:vector  ETV
attr source ContentManager_TotalBytesDownloaded
attr title "Total of Bytes Downloaded, vector"
attr unit B
1768	360096 8912 4360387 225166162 36006.822010654257 36195.592461581224 217 16384 3555328 387530752 9.2064905691136e+14
vector 1961  BasicTopology.peer[41].bitTorrentApp.bitTorrentClient.contentManager_51  TotalBytesUploaded:vector  ETV
attr source ContentManager_TotalBytesUploaded
attr title "Total of Bytes Uploaded, vector"
attr unit B
1961	754147 14079 4511666 219052100 36007.060453450473 36187.217538767725 344 16384 5636096 972226560 3.6583511372595e+15
vector 1680  BasicTopology.peer[6].bitTorrentApp.bitTorrentClient.contentManager_51  TotalBytesDownloaded:vector  ETV
attr source ContentManager_TotalBytesDownloaded
attr title "Total of Bytes Downloaded, vector"
attr unit B
1680	172996 8218 4740230 227947138 36007.303733966047 36200.161758619097 200 16384 3276800 329318400 7.212055396352e+14
vector 1696  BasicTopology.peer[8].bitTorrentApp.bitTorrentClient.contentManager_51  TotalBytesDownloaded:vector  ETV
attr source ContentManager_TotalBytesDownloaded
attr title "Total of Bytes Downloaded, vector"
attr unit B
1696	205890 8220 4815216 224107965 36007.406143086898 36194.019109939894 200 16384 3276800 329318400 7.212055396352e+14
vector 1832  BasicTopology.peer[25].bitTorrentApp.bitTorrentClient.contentManager_51  TotalBytesDownloaded:vector  ETV
attr source ContentManager_TotalBytesDownloaded
attr title "Total of Bytes Downloaded, vector"
attr unit B
1832	505307 9015 5173438 224099690 36007.771005549694 36193.866051288114 219 16384 3588096 394690560 9.4628061642752e+14
vector 1984  BasicTopology.peer[44].bitTorrentApp.bitTorrentClient.contentManager_51  TotalBytesDownloaded:vector  ETV
attr source ContentManager_TotalBytesDownloaded
attr title "Total of Bytes Downloaded, vector"
attr unit B
1984	809005 7860 5186103 218792430 36007.781741920905 36186.888916852674 192 16384 3145728 303562752 6.3827508985856e+14
vector 1824  BasicTopology.peer[24].bitTorrentApp.bitTorrentClient.contentManager_51  TotalBytesDownloaded:vector  ETV
attr source ContentManager_TotalBytesDownloaded
attr title "Total of Bytes Downloaded, vector"
attr unit B
1824	487423 8217 5289389 232925078 36007.881699539884 36213.123018454593 200 16384 3276800 329318400 7.212055396352e+14
vector 1871  BasicTopology.peer[30].bitTorrentApp.bitTorrentClient.contentManager_51  PiecesDownloaded:vector  ETV
attr source ContentManager_PieceDownloaded
attr title "Pieces Downloaded, vector"
1871	572878 862 5308329 200750717 36007.897649596693 36166.717782427474 24 0 23 276 4324
vector 1873  BasicTopology.peer[30].bitTorrentApp.bitTorrentClient.contentManager_51  TotalBytesUploaded:vector  ETV
attr source ContentManager_TotalBytesUploaded
attr title "Total of Bytes Uploaded, vector"
attr unit B
1873	582310 10732 5365588 205650660 36007.944083989231 36172.157916151397 263 16384 4308992 568786944 1.6370385960305e+15
vector 1672  BasicTopology.peer[5].bitTorrentApp.bitTorrentClient.contentManager_51  TotalBytesDownloaded:vector  ETV
attr source ContentManager_TotalBytesDownloaded
attr title "Total of Bytes Downloaded, vector"
attr unit B
1672	154252 8125 5378082 190275121 36007.955387256582 36155.653889449071 198 16384 3244032 322781184 6.9983780890214e+14
vector 1744  BasicTopology.peer[14].bitTorrentApp.bitTorrentClient.contentManager_51  TotalBytesDownloaded:vector  ETV
attr source ContentManager_TotalBytesDownloaded
attr title "Total of Bytes Downloaded, vector"
attr unit B
1744	311204 9148 5418911 222374752 36007.989217419166 36191.369628536143 222 16384 3637248 405553152 9.8561312161792e+14
vector 1720  BasicTopology.peer[11].bitTorrentApp.bitTorrentClient.contentManager_51  TotalBytesDownloaded:vector  ETV
attr source ContentManager_TotalBytesDownloaded
attr title "Total of Bytes Downloaded, vector"
attr unit B
1720	259272 7868 5440894 215204336 36008.008286826642 36182.616615478892 192 16384 3145728 303562752 6.3827508985856e+14
vector 1903  BasicTopology.peer[34].bitTorrentApp.bitTorrentClient.contentManager_51  PiecesDownloaded:vector  ETV
attr source ContentManager_PieceDownloaded
attr title "Pieces Downloaded, vector"
1903	638389 866 6205281 238903938 36008.841069724839 36302.454044250294 24 0 23 276 4324
vector 1816  BasicTopology.peer[23].bitTorrentApp.bitTorrentClient.contentManager_51  TotalBytesDownloaded:vector  ETV
attr source ContentManager_TotalBytesDownloaded
attr title "Total of Bytes Downloaded, vector"
attr unit B
1816	475002 8945 6250750 218654578 36008.899775485818 36186.679227405823 217 16384 3555328 387530752 9.2064905691136e+14
vector 1905  BasicTopology.peer[34].bitTorrentApp.bitTorrentClient.contentManager_51  TotalBytesUploaded:vector  ETV
attr source ContentManager_TotalBytesUploaded
attr title "Total of Bytes Uploaded, vector"
attr unit B
1905	647313 5723 6256494 196574811 36008.909966356364 36162.135992236978 141 16384 2310144 164020224 2.5350266001818e+14
vector 1695  BasicTopology.peer[8].bitTorrentApp.bitTorrentClient.contentManager_51  PiecesDownloaded:vector  ETV
attr source ContentManager_PieceDownloaded
attr title "Pieces Downloaded, vector"
1695	205025 865 6477063 224107965 36009.145181674755 36194.019109939894 24 0 23 276 4324
vector 1697  BasicTopology.peer[8].bitTorrentApp.bitTorrentClient.contentManager_51  TotalBytesUploaded:vector  ETV
attr source ContentManager_TotalBytesUploaded
attr title "Total of Bytes Uploaded, vector"
attr unit B
1697	214110 11384 6515698 194591037 36009.176033480782 36160.028917651632 280 16384 4587520 644546560 1.9747669069005e+15
vector 1896  BasicTopology.peer[33].bitTorrentApp.bitTorrentClient.contentManager_51  TotalBytesDownloaded:vector  ETV
attr source ContentManager_TotalBytesDownloaded
attr title "Total of Bytes Downloaded, vector"
attr unit B
1896	624879 8487 6684217 218544182 36009.328118377952 36186.485691250375 206 16384 3375104 349323264 7.879093345321e+14
vector 1920  BasicTopology.peer[36].bitTorrentApp.bitTorrentClient.contentManager_51  TotalBytesDownloaded:vector  ETV
attr source ContentManager_TotalBytesDownloaded
attr title "Total of Bytes Downloaded, vector"
attr unit B
1920	669985 8388 6702003 234531549 36009.35691653894 36231.777692226265 204 16384 3342336 342589440 7.6523700748288e+14
vector 1823  BasicTopology.peer[24].bitTorrentApp.bitTorrentClient.contentManager_51  PiecesDownloaded:vector  ETV
attr source ContentManager_PieceDownloaded
attr title "Pieces Downloaded, vector"
1823	486559 864 6749474 232925078 36009.43628268466 36213.123018454593 24 0 23 276 4324
vector 1825  BasicTopology.peer[24].bitTorrentApp.bitTorrentClient.contentManager_51  TotalBytesUploaded:vector  ETV
attr source ContentManager_TotalBytesUploaded
attr title "Total of Bytes Uploaded, vector"
attr unit B