file 902950 1593887688                                          
version 2
run Test-20-20200526-20:44:53-4447
attr configname Test
attr datetime 20200526-20:44:53
attr experiment "\"Simulation Test\""
attr inifile BasicConfig.ini
attr iterationvars ""
attr iterationvars2 $repetition=20
attr measurement "\"Peers: $peers, Rate: $rate\""
attr network BasicTopology
attr processid 4447
attr repetition 20
attr replication #20
attr resultdir results
attr runnumber 20
attr seedset 20
vector 3  BasicTopology.peer[1].bitTorrentApp.bitTorrentClient  DownloadComplete_Test:vector  ETV
attr source BitTorrentClient_DownloadComplete_Test
attr title "Descargas completas (prueba), vector"
3	42445 63 153 40145777 36001 36039.39149530762 2 36001 36039.391495308 72040.391495308 2594909740.3521
vector 5  BasicTopology.peer[2].bitTorrentApp.bitTorrentClient  DownloadComplete_Test:vector  ETV
attr source BitTorrentClient_DownloadComplete_Test
attr title "Descargas completas (prueba), vector"
5	42508 65 154 198109549 36001 36168.099690974423 2 36001 36168.099690974 72169.099690974 2604203436.2562
vector 7  BasicTopology.peer[3].bitTorrentApp.bitTorrentClient  DownloadComplete_Test:vector  ETV
attr source BitTorrentClient_DownloadComplete_Test
attr title "Descargas completas (prueba), vector"
7	42573 65 155 231099340 36001 36214.238766366909 2 36001 36214.238766367 72215.238766367 2607543090.4274
vector 9  BasicTopology.peer[4].bitTorrentApp.bitTorrentClient  DownloadComplete_Test:vector  ETV
attr source BitTorrentClient_DownloadComplete_Test
attr title "Descargas completas (prueba), vector"
9	42638 64 156 172442538 36001 36140.879883480041 2 36001 36140.87988348 72141.87988348 2602235199.7521
vector 11  BasicTopology.peer[5].bitTorrentApp.bitTorrentClient  DownloadComplete_Test:vector  ETV
attr source BitTorrentClient_DownloadComplete_Test
attr title "Descargas completas (prueba), vector"
11	42702 67 157 201942516 36001 36172.640041171987 2 36001 36172.640041172 72173.640041172 2604531888.5482
vector 13  BasicTopology.peer[6].bitTorrentApp.bitTorrentClient  DownloadComplete_Test:vector  ETV
attr source BitTorrentClient_DownloadComplete_Test
attr title "Descargas completas (prueba), vector"
13	42769 66 158 201501278 36001 36172.113623370375 2 36001 36172.11362337 72173.11362337 2604493804.982
vector 15  BasicTopology.peer[7].bitTorrentApp.bitTorrentClient  DownloadComplete_Test:vector  ETV
attr source BitTorrentClient_DownloadComplete_Test
attr title "Descargas completas (prueba), vector"
15	42835 67 159 214816877 36001 36189.030941085525 2 36001 36189.030941086 72190.030941086 2605717961.4549
vector 17  BasicTopology.peer[8].bitTorrentApp.bitTorrentClient  DownloadComplete_Test:vector  ETV
attr source BitTorrentClient_DownloadComplete_Test
attr title "Descargas completas (prueba), vector"
17	42902 67 160 192707583 36001 36161.933328169346 2 36001 36161.933328169 72162.933328169 2603757423.0309
vector 19  BasicTopology.peer[9].bitTorrentApp.bitTorrentClient  DownloadComplete_Test:vector  ETV
attr source BitTorrentClient_DownloadComplete_Test
attr title "Descargas completas (prueba), vector"
19	42969 67 161 224386648 36001 36203.464265038585 2 36001 36203.464265039 72204.464265039 2606762825.79
vector 21  BasicTopology.peer[10].bitTorrentApp.bitTorrentClient  DownloadComplete_Test:vector  ETV
attr source BitTorrentClient_DownloadComplete_Test
attr title "Descargas completas (prueba), vector"
21	43036 65 162 92178482 36001 36078.75277154462 2 36001 36078.752771545 72079.752771545 2597748402.5503
vector 23  BasicTopology.peer[11].bitTorrentApp.bitTorrentClient  DownloadComplete_Test:vector  ETV
attr source BitTorrentClient_DownloadComplete_Test
attr title "Descargas completas (prueba), vector"
23	43101 66 163 200204250 36001 36170.516556880014 2 36001 36170.51655688 72171.51655688 2604378268.9915
vector 25  BasicTopology.peer[12].bitTorrentApp.bitTorrentClient  DownloadComplete_Test:vector  ETV
attr source BitTorrentClient_DownloadComplete_Test
attr title "Descargas completas (prueba), vector"
25	43167 67 164 142979871 36001 36115.957716661705 2 36001 36115.957716662 72116.957716662 2600434402.7917
vector 27  BasicTopology.peer[13].bitTorrentApp.bitTorrentClient  DownloadComplete_Test:vector  ETV
attr source BitTorrentClient_DownloadComplete_Test
attr title "Descargas completas (prueba), vector"
27	43234 67 165 212517488 36001 36185.934994329231 2 36001 36185.934994329 72186.934994329 2605493892.4138
vector 29  BasicTopology.peer[14].bitTorrentApp.bitTorrentClient  DownloadComplete_Test:vector  ETV
attr source BitTorrentClient_DownloadComplete_Test
attr title "Descargas completas (prueba), vector"
29	43301 67 166 229580214 36001 36211.804213736691 2 36001 36211.804213737 72212.804213737 2607366765.414
vector 31  BasicTopology.peer[15].bitTorrentApp.bitTorrentClient  DownloadComplete_Test:vector  ETV
attr source BitTorrentClient_DownloadComplete_Test
attr title "Descargas completas (prueba), vector"
31	43368 66 167 198544125 36001 36168.67272618656 2 36001 36168.672726187 72169.672726187 2604244887.774
vector 33  BasicTopology.peer[16].bitTorrentApp.bitTorrentClient  DownloadComplete_Test:vector  ETV
attr source BitTorrentClient_DownloadComplete_Test
attr title "Descargas completas (prueba), vector"
33	43434 67 168 217418312 36001 36192.782816477397 2 36001 36192.782816477 72193.782816477 2605989529.0007
vector 35  BasicTopology.peer[17].bitTorrentApp.bitTorrentClient  DownloadComplete_Test:vector  ETV
attr source BitTorrentClient_DownloadComplete_Test
attr title "Descargas completas (prueba), vector"
35	43501 67 169 216565628 36001 36191.565479968033 2 36001 36191.565479968 72192.565479968 2605901412.8908
vector 37  BasicTopology.peer[18].bitTorrentApp.bitTorrentClient  DownloadComplete_Test:vector  ETV
attr source BitTorrentClient_DownloadComplete_Test
attr title "Descargas completas (prueba), vector"
37	43568 66 170 219494580 36001 36195.819818849823 2 36001 36195.81981885 72196.81981885 2606209373.3587
vector 39  BasicTopology.peer[19].bitTorrentApp.bitTorrentClient  DownloadComplete_Test:vector  ETV
attr source BitTorrentClient_DownloadComplete_Test
attr title "Descargas completas (prueba), vector"
39	43634 67 171 222488104 36001 36200.400681322344 2 36001 36200.400681322 72201.400681322 2606541010.4883
vector 41  BasicTopology.peer[20].bitTorrentApp.bitTorrentClient  DownloadComplete_Test:vector  ETV
attr source BitTorrentClient_DownloadComplete_Test
attr title "Descargas completas (prueba), vector"
41	43701 66 172 236711452 36001 36302.99880394679 2 36001 36302.998803947 72303.998803947 2613979723.1594
vector 43  BasicTopology.peer[21].bitTorrentApp.bitTorrentClient  DownloadComplete_Test:vector  ETV
attr source BitTorrentClient_DownloadComplete_Test
attr title "Descargas completas (prueba), vector"
43	43767 67 173 201531999 36001 36172.140683083643 2 36001 36172.140683084 72173.140683084 2604495762.5968
vector 45  BasicTopology.peer[22].bitTorrentApp.bitTorrentClient  DownloadComplete_Test:vector  ETV
attr source BitTorrentClient_DownloadComplete_Test
attr title "Descargas completas (prueba), vector"
45	43834 67 174 233414316 36001 36222.326330212856 2 36001 36222.326330213 72223.326330213 2608128925.7724
vector 47  BasicTopology.peer[23].bitTorrentApp.bitTorrentClient  DownloadComplete_Test:vector  ETV
attr source BitTorrentClient_DownloadComplete_Test
attr title "Descargas completas (prueba), vector"
47	43901 67 175 210791774 36001 36183.743307568269 2 36001 36183.743307568 72184.743307568 2605335280.748
vector 49  BasicTopology.peer[24].bitTorrentApp.bitTorrentClient  DownloadComplete_Test:vector  ETV
attr source BitTorrentClient_DownloadComplete_Test
attr title "Descargas completas (prueba), vector"
49	43968 67 176 215002688 36001 36189.337306119236 2 36001 36189.337306119 72190.337306119 2605740135.6561
vector 51  BasicTopology.peer[25].bitTorrentApp.bitTorrentClient  DownloadComplete_Test:vector  ETV
attr source BitTorrentClient_DownloadComplete_Test
attr title "Descargas completas (prueba), vector"
51	44035 67 177 196458212 36001 36166.371273181452 2 36001 36166.371273181 72167.371273181 2604078412.0696
vector 53  BasicTopology.peer[26].bitTorrentApp.bitTorrentClient  DownloadComplete_Test:vector  ETV
attr source BitTorrentClient_DownloadComplete_Test
attr title "Descargas completas (prueba), vector"
53	44102 67 178 233617611 36001 36228.563841715402 2 36001 36228.563841715 72229.563841715 2608580839.0332
vector 55  BasicTopology.peer[27].bitTorrentApp.bitTorrentClient  DownloadComplete_Test:vector  ETV
attr source BitTorrentClient_DownloadComplete_Test
attr title "Descargas completas (prueba), vector"
55	44169 67 179 228375799 36001 36209.566854492067 2 36001 36209.566854492 72210.566854492 2607204732.7899
vector 57  BasicTopology.peer[28].bitTorrentApp.bitTorrentClient  DownloadComplete_Test:vector  ETV
attr source BitTorrentClient_DownloadComplete_Test
attr title "Descargas completas (prueba), vector"
57	44236 67 180 210151728 36001 36182.915092004904 2 36001 36182.915092005 72183.915092005 2605275345.5552
vector 59  BasicTopology.peer[29].bitTorrentApp.bitTorrentClient  DownloadComplete_Test:vector  ETV
attr source BitTorrentClient_DownloadComplete_Test
attr title "Descargas completas (prueba), vector"
59	44303 67 181 236446890 36001 36302.390372083789 2 36001 36302.390372084 72303.390372084 2613935547.7272
vector 61  BasicTopology.peer[30].bitTorrentApp.bitTorrentClient  DownloadComplete_Test:vector  ETV
attr source BitTorrentClient_DownloadComplete_Test
attr title "Descargas completas (prueba), vector"
61	44370 67 182 236483180 36001 36302.472453794668 2 36001 36302.472453795 72303.472453795 2613941507.2585
vector 63  BasicTopology.peer[31].bitTorrentApp.bitTorrentClient  DownloadComplete_Test:vector  ETV
attr source BitTorrentClient_DownloadComplete_Test
attr title "Descargas completas (prueba), vector"
63	44437 67 183 230042373 36001 36212.474724427582 2 36001 36212.474724428 72213.474724428 2607415326.6673
vector 65  BasicTopology.peer[32].bitTorrentApp.bitTorrentClient  DownloadComplete_Test:vector  ETV
attr source BitTorrentClient_DownloadComplete_Test
attr title "Descargas completas (prueba), vector"
65	44504 67 184 223582497 36001 36202.178185679252 2 36001 36202.178185679 72203.178185679 2606669706.3877
vector 67  BasicTopology.peer[33].bitTorrentApp.bitTorrentClient  DownloadComplete_Test:vector  ETV
attr source BitTorrentClient_DownloadComplete_Test
attr title "Descargas completas (prueba), vector"
67	44571 67 185 195379536 36001 36165.089495432593 2 36001 36165.089495433 72166.089495433 2603985699.2127
vector 69  BasicTopology.peer[34].bitTorrentApp.bitTorrentClient  DownloadComplete_Test:vector  ETV
attr source BitTorrentClient_DownloadComplete_Test
attr title "Descargas completas (prueba), vector"
69	44638 67 186 232391498 36001 36218.230813992386 2 36001 36218.230813992 72219.230813992 2607832244.2956
vector 71  BasicTopology.peer[35].bitTorrentApp.bitTorrentClient  DownloadComplete_Test:vector  ETV
attr source BitTorrentClient_DownloadComplete_Test
attr title "Descargas completas (prueba), vector"
71	44705 67 187 229069447 36001 36211.037087674241 2 36001 36211.037087674 72212.037087674 2607311207.9649
vector 73  BasicTopology.peer[36].bitTorrentApp.bitTorrentClient  DownloadComplete_Test:vector  ETV
attr source BitTorrentClient_DownloadComplete_Test
attr title "Descargas completas (prueba), vector"
73	44772 66 188 216524727 36001 36191.49440470753 2 36001 36191.494404708 72192.494404708 2605896268.246
vector 75  BasicTopology.peer[37].bitTorrentApp.bitTorrentClient  DownloadComplete_Test:vector  ETV
attr source BitTorrentClient_DownloadComplete_Test
attr title "Descargas completas (prueba), vector"
75	44838 66 189 229825241 36001 36212.16966096243 2 36001 36212.169660962 72213.169660962 2607393232.5543
vector 77  BasicTopology.peer[38].bitTorrentApp.bitTorrentClient  DownloadComplete_Test:vector  ETV
attr source BitTorrentClient_DownloadComplete_Test
attr title "Descargas completas (prueba), vector"
77	44904 67 190 218519018 36001 36194.372856028756 2 36001 36194.372856029 72195.372856029 2606104627.4412
vector 79  BasicTopology.peer[39].bitTorrentApp.bitTorrentClient  DownloadComplete_Test:vector  ETV
attr source BitTorrentClient_DownloadComplete_Test
attr title "Descargas completas (prueba), vector"
79	44971 67 191 215925892 36001 36190.682733534513 2 36001 36190.682733535 72191.682733535 2605837517.7194
vector 81  BasicTopology.peer[40].bitTorrentApp.bitTorrentClient  DownloadComplete_Test:vector  ETV
attr source BitTorrentClient_DownloadComplete_Test
attr title "Descargas completas (prueba), vector"
81	45038 67 192 202312619 36001 36173.011403414209 2 36001 36173.011403414 72174.011403414 2604558754.9915
vector 83  BasicTopology.peer[41].bitTorrentApp.bitTorrentClient  DownloadComplete_Test:vector  ETV
attr source BitTorrentClient_DownloadComplete_Test
attr title "Descargas completas (prueba), vector"
83	45105 66 193 217471544 36001 36192.861544589646 2 36001 36192.86154459 72193.86154459 2605995227.7859
vector 85  BasicTopology.peer[42].bitTorrentApp.bitTorrentClient  DownloadComplete_Test:vector  ETV
attr source BitTorrentClient_DownloadComplete_Test
attr title "Descargas completas (prueba), vector"
85	45171 67 194 231455143 36001 36214.836624990798 2 36001 36214.836624991 72215.836624991 2607586392.7748
vector 87  BasicTopology.peer[43].bitTorrentApp.bitTorrentClient  DownloadComplete_Test:vector  ETV
attr source BitTorrentClient_DownloadComplete_Test
attr title "Descargas completas (prueba), vector"
87	45238 67 195 228463700 36001 36209.794100694518 2 36001 36209.794100695 72210.794100695 2607221189.8147
vector 89  BasicTopology.peer[44].bitTorrentApp.bitTorrentClient  DownloadComplete_Test:vector  ETV
attr source BitTorrentClient_DownloadComplete_Test
attr title "Descargas completas (prueba), vector"
89	45305 67 196 229447897 36001 36211.653983645402 2 36001 36211.653983645 72212.653983645 2607355885.2312
vector 91  BasicTopology.peer[45].bitTorrentApp.bitTorrentClient  DownloadComplete_Test:vector  ETV
attr source BitTorrentClient_DownloadComplete_Test
attr title "Descargas completas (prueba), vector"
91	45372 67 197 222875727 36001 36201.005350096088 2 36001 36201.005350096 72202.005350096 2606584789.3577
vector 93  BasicTopology.peer[46].bitTorrentApp.bitTorrentClient  DownloadComplete_Test:vector  ETV
attr source BitTorrentClient_DownloadComplete_Test
attr title "Descargas completas (prueba), vector"
93	45439 66 198 232303854 36001 36217.762251450336 2 36001 36217.76225145 72218.76225145 2607798303.5026
vector 95  BasicTopology.peer[47].bitTorrentApp.bitTorrentClient  DownloadComplete_Test:vector  ETV
attr source BitTorrentClient_DownloadComplete_Test
attr title "Descargas completas (prueba), vector"
95	45505 66 199 229320219 36001 36211.47734063474 2 36001 36211.477340635 72212.477340635 2607343092.1913
vector 97  BasicTopology.peer[48].bitTorrentApp.bitTorrentClient  DownloadComplete_Test:vector  ETV
attr source BitTorrentClient_DownloadComplete_Test
attr title "Descargas completas (prueba), vector"
97	45571 67 200 224604613 36001 36203.839170122212 2 36001 36203.839170122 72204.839170122 2606789971.6561
vector 99  BasicTopology.peer[49].bitTorrentApp.bitTorrentClient  DownloadComplete_Test:vector  ETV
attr source BitTorrentClient_DownloadComplete_Test
attr title "Descargas completas (prueba), vector"
99	45638 67 201 227292878 36001 36207.997942436781 2 36001 36207.997942437 72208.997942437 2607091115.9995
vector 1633  BasicTopology.peer[0].bitTorrentApp.bitTorrentClient.contentManager_51  TotalBytesUploaded:vector  ETV
attr source ContentManager_TotalBytesUploaded
attr title "Total of Bytes Uploaded, vector"
attr unit B
1633	45705 15724 1334769 236302221 36002.596772491703 36301.156819316605 388 16384 6356992 1236434944 5.2467572817265e+15
vector 1640  BasicTopology.peer[1].bitTorrentApp.bitTorrentClient.contentManager_51  TotalBytesDownloaded:vector  ETV
attr source ContentManager_TotalBytesDownloaded
attr title "Total of Bytes Downloaded, vector"
attr unit B
1640	62271 7706 1540954 40145777 36003.988889659573 36039.39149530762 192 16384 3145728 303562752 6.3827508985856e+14
vector 1728  BasicTopology.peer[12].bitTorrentApp.bitTorrentClient.contentManager_51  TotalBytesDownloaded:vector  ETV
attr source ContentManager_TotalBytesDownloaded
attr title "Total of Bytes Downloaded, vector"
attr unit B
1728	273470 7803 1740685 142979871 36004.075992347952 36115.957716661705 192 16384 3145728 303562752 6.3827508985856e+14
vector 1752  BasicTopology.peer[15].bitTorrentApp.bitTorrentClient.contentManager_51  TotalBytesDownloaded:vector  ETV
attr source ContentManager_TotalBytesDownloaded
attr title "Total of Bytes Downloaded, vector"
attr unit B
1752	330998 8549 2008381 208230535 36004.279686736601 36180.614133404143 208 16384 3407872 356122624 8.1102511695462e+14
vector 1639  BasicTopology.peer[1].bitTorrentApp.bitTorrentClient.contentManager_51  PiecesDownloaded:vector  ETV
attr source ContentManager_PieceDownloaded
attr title "Pieces Downloaded, vector"
1639	61429 842 2620268 40145777 36005.14300346271 36039.39149530762 24 0 23 276 4324
vector 1641  BasicTopology.peer[1].bitTorrentApp.bitTorrentClient.contentManager_51  TotalBytesUploaded:vector  ETV
attr source ContentManager_TotalBytesUploaded
attr title "Total of Bytes Uploaded, vector"
attr unit B
1641	69977 17578 2632593 212812792 36005.166708837835 36186.405977755417 433 16384 7094272 1539457024 7.2892920616714e+15
vector 1776  BasicTopology.peer[18].bitTorrentApp.bitTorrentClient.contentManager_51  TotalBytesDownloaded:vector  ETV
attr source ContentManager_TotalBytesDownloaded
attr title "Total of Bytes Downloaded, vector"
attr unit B
1776	378528 8793 2914390 219494580 36005.905682862303 36195.819818849823 214 16384 3506176 376913920 8.8307614613504e+14
vector 1751  BasicTopology.peer[15].bitTorrentApp.bitTorrentClient.contentManager_51  PiecesDownloaded:vector  ETV
attr source ContentManager_PieceDownloaded
attr title "Pieces Downloaded, vector"
1751	330133 865 3016682 198544125 36006.05607670871 36168.67272618656 24 0 23 276 4324
vector 1753  BasicTopology.peer[15].bitTorrentApp.bitTorrentClient.contentManager_51  TotalBytesUploaded:vector  ETV
attr source ContentManager_TotalBytesUploaded
attr title "Total of Bytes Uploaded, vector"
attr unit B
1753	339547 13155 3040359 197060096 36006.18093067466 36166.961944208994 323 16384 5292032 857309184 3.0292871416381e+15
vector 1656  BasicTopology.peer[3].bitTorrentApp.bitTorrentClient.contentManager_51  TotalBytesDownloaded:vector  ETV
attr source ContentManager_TotalBytesDownloaded
attr title "Total of Bytes Downloaded, vector"
attr unit B
1656	107420 8106 3118443 231099340 36006.597243526201 36214.238766366909 198 16384 3244032 322781184 6.9983780890214e+14
vector 1712  BasicTopology.peer[10].bitTorrentApp.bitTorrentClient.contentManager_51  TotalBytesDownloaded:vector  ETV
attr source ContentManager_TotalBytesDownloaded
attr title "Total of Bytes Downloaded, vector"
attr unit B
1712	227829 7769 3132782 92178482 36006.637205075025 36078.75277154462 192 16384 3145728 303562752 6.3827508985856e+14
vector 1711  BasicTopology.peer[10].bitTorrentApp.bitTorrentClient.contentManager_51  PiecesDownloaded:vector  ETV
attr source ContentManager_PieceDownloaded
attr title "Pieces Downloaded, vector"
1711	226981 848 3212005 92178482 36006.856821088255 36078.75277154462 24 0 23 276 4324
vector 1713  BasicTopology.peer[10].bitTorrentApp.bitTorrentClient.contentManager_51  TotalBytesUploaded:vector  ETV
attr source ContentManager_TotalBytesUploaded
attr title "Total of Bytes Uploaded, vector"
attr unit B
1713	235598 15245 3223256 192187857 36006.882890746962 36161.427438100256 375 16384 6144000 1155072000 4.737483145216e+15
vector 1680  BasicTopology.peer[6].bitTorrentApp.bitTorrentClient.contentManager_51  TotalBytesDownloaded:vector  ETV
attr source ContentManager_TotalBytesDownloaded
attr title "Total of Bytes Downloaded, vector"
attr unit B
1680	155748 7846 3567380 201501278 36007.578842926603 36172.113623370375 192 16384 3145728 303562752 6.3827508985856e+14
vector 1976  BasicTopology.peer[43].bitTorrentApp.bitTorrentClient.contentManager_51  TotalBytesDownloaded:vector  ETV
attr source ContentManager_TotalBytesDownloaded
attr title "Total of Bytes Downloaded, vector"
attr unit B
1976	795445 7869 3865716 228463700 36007.968490568244 36209.794100694518 192 16384 3145728 303562752 6.3827508985856e+14
vector 1727  BasicTopology.peer[12].bitTorrentApp.bitTorrentClient.contentManager_51  PiecesDownloaded:vector  ETV
attr source ContentManager_PieceDownloaded
attr title "Pieces Downloaded, vector"
1727	272612 858 4022298 142979871 36008.427936238554 36115.957716661705 24 0 23 276 4324
vector 1729  BasicTopology.peer[12].bitTorrentApp.bitTorrentClient.contentManager_51  TotalBytesUploaded:vector  ETV
attr source ContentManager_TotalBytesUploaded
attr title "Total of Bytes Uploaded, vector"
attr unit B
1729	281273 13625 4038009 193110394 36008.450522450807 36162.389060573233 334 16384 5472256 916602880 3.3489296136602e+15
vector 1720  BasicTopology.peer[11].bitTorrentApp.bitTorrentClient.contentManager_51  TotalBytesDownloaded:vector  ETV
attr source ContentManager_TotalBytesDownloaded
attr title "Total of Bytes Downloaded, vector"
attr unit B
1720	251698 7808 4137757 200204250 36008.526880602533 36170.516556880014 192 16384 3145728 303562752 6.3827508985856e+14
vector 1672  BasicTopology.peer[5].bitTorrentApp.bitTorrentClient.contentManager_51  TotalBytesDownloaded:vector  ETV
attr source ContentManager_TotalBytesDownloaded
attr title "Total of Bytes Downloaded, vector"
attr unit B
1672	142741 8024 4414143 201942516 36008.713491909423 36172.640041171987 195 16384 3194880 313098240 6.6858413719552e+14
vector 1760  BasicTopology.peer[16].bitTorrentApp.bitTorrentClient.contentManager_51  TotalBytesDownloaded:vector  ETV
attr source ContentManager_TotalBytesDownloaded
attr title "Total of Bytes Downloaded, vector"
attr unit B
1760	353566 7877 4460225 217418312 36008.812613290466 36192.782816477397 192 16384 3145728 303562752 6.3827508985856e+14
vector 1679  BasicTopology.peer[6].bitTorrentApp.bitTorrentClient.contentManager_51  PiecesDownloaded:vector  ETV
attr source ContentManager_PieceDownloaded
attr title "Pieces Downloaded, vector"
1679	154887 861 4462901 201501278 36008.817830955159 36172.113623370375 24 0 23 276 4324
vector 1681  BasicTopology.peer[6].bitTorrentApp.bitTorrentClient.contentManager_51  TotalBytesUploaded:vector  ETV
attr source ContentManager_TotalBytesUploaded
attr title "Total of Bytes Uploaded, vector"
attr unit B
1681	163594 16970 4486565 236293037 36008.864166033807 36301.135696590539 416 16384 6815744 1421082624 6.4649179179254e+15
vector 1792  BasicTopology.peer[20].bitTorrentApp.bitTorrentClient.contentManager_51  TotalBytesDownloaded:vector  ETV
attr source ContentManager_TotalBytesDownloaded
attr title "Total of Bytes Downloaded, vector"
attr unit B
1792	414070 8541 4534390 236711452 36008.942162097943 36302.99880394679 207 16384 3391488 352714752 7.9941152538624e+14
vector 1655  BasicTopology.peer[3].bitTorrentApp.bitTorrentClient.contentManager_51  PiecesDownloaded:vector  ETV
attr source ContentManager_PieceDownloaded
attr title "Pieces Downloaded, vector"
1655	106559 861 4610186 231099340 36009.075719193589 36214.238766366909 24 0 23 276 4324
vector 1657  BasicTopology.peer[3].bitTorrentApp.bitTorrentClient.contentManager_51  TotalBytesUploaded:vector  ETV
attr source ContentManager_TotalBytesUploaded
attr title "Total of Bytes Uploaded, vector"
attr unit B
1657	115526 7112 4641065 144971053 36009.130904208967 36117.483376636554 176 16384 2883584 255197184 4.9198206130586e+14
vector 1952  BasicTopology.peer[40].bitTorrentApp.bitTorrentClient.contentManager_51  TotalBytesDownloaded:vector  ETV
attr source ContentManager_TotalBytesDownloaded
attr title "Total of Bytes Downloaded, vector"
attr unit B
1952	739363 7912 4800365 202312619 36009.333065507118 36173.011403414209 193 16384 3162112 306724864 6.482740421591e+14
vector 1759  BasicTopology.peer[16].bitTorrentApp.bitTorrentClient.contentManager_51  PiecesDownloaded:vector  ETV
attr source ContentManager_PieceDownloaded
attr title "Pieces Downloaded, vector"
1759	352702 864 4907384 217418312 36009.496488752654 36192.782816477397 24 0 23 276 4324
vector 1761  BasicTopology.peer[16].bitTorrentApp.bitTorrentClient.contentManager_51  TotalBytesUploaded:vector  ETV
attr source ContentManager_TotalBytesUploaded
attr title "Total of Bytes Uploaded, vector"
attr unit B
1761	361443 6880 4932815 193944658 36009.521112328163 36163.445099766259 170 16384 2785280 238141440 4.4349429645312e+14
vector 1784  BasicTopology.peer[19].bitTorrentApp.bitTorrentClient.contentManager_51  TotalBytesDownloaded:vector  ETV
attr source ContentManager_TotalBytesDownloaded
attr title "Total of Bytes Downloaded, vector"
attr unit B
1784	395324 8214 4977642 228371329 36009.577354891602 36209.559610646681 200 16384 3276800 329318400 7.212055396352e+14
vector 1744  BasicTopology.peer[14].bitTorrentApp.bitTorrentClient.contentManager_51  TotalBytesDownloaded:vector  ETV
attr source ContentManager_TotalBytesDownloaded
attr title "Total of Bytes Downloaded, vector"
attr unit B
1744	305524 7944 5146890 229580214 36009.868364007984 36211.804213736691 194 16384 3178496 309903360 6.5837687898112e+14
vector 1704  BasicTopology.peer[9].bitTorrentApp.bitTorrentClient.contentManager_51  TotalBytesDownloaded:vector  ETV
attr source ContentManager_TotalBytesDownloaded
attr title "Total of Bytes Downloaded, vector"
attr unit B
1704	213394 8099 5476093 224386648 36010.126513572216 36203.464265038585 197 16384 3227648 319537152 6.8931406528512e+14
vector 1664  BasicTopology.peer[4].bitTorrentApp.bitTorrentClient.contentManager_51  TotalBytesDownloaded:vector  ETV
attr source ContentManager_TotalBytesDownloaded
attr title "Total of Bytes Downloaded, vector"
attr unit B
1664	123501 7848 5619388 172442538 36010.246878191088 36140.879883480041 192 16384 3145728 303562752 6.3827508985856e+14
vector 1808  BasicTopology.peer[22].bitTorrentApp.bitTorrentClient.contentManager_51  TotalBytesDownloaded:vector  ETV
attr source ContentManager_TotalBytesDownloaded
attr title "Total of Bytes Downloaded, vector"
attr unit B
1808	456936 7909 5784997 233414316 36010.565092432777 36222.326330212856 192 16384 3145728 303562752 6.3827508985856e+14
vector 1688  BasicTopology.peer[7].bitTorrentApp.bitTorrentClient.contentManager_51  TotalBytesDownloaded:vector  ETV
attr source ContentManager_TotalBytesDownloaded
attr title "Total of Bytes Downloaded, vector"
attr unit B
1688	181434 7889 6004396 214816877 36010.78426095666 36189.030941085525 192 16384 3145728 303562752 6.3827508985856e+14
vector 1975  BasicTopology.peer[43].bitTorrentApp.bitTorrentClient.contentManager_51  PiecesDownloaded:vector  ETV
attr source ContentManager_PieceDownloaded
attr title "Pieces Downloaded, vector"
1975	794578 867 6499797 228463700 36011.501378296282 36209.794100694518 24 0 23 276 4324
vector 1977  BasicTopology.peer[43].bitTorrentApp.bitTorrentClient.contentManager_51  TotalBytesUploaded:vector  ETV
attr source ContentManager_TotalBytesUploaded
attr title "Total of Bytes Uploaded, vector"
attr unit B
1977	803314 16619 6520133 228580697 36011.524378511986 36209.997141695523 406 16384 6651904 1353662464 6.0103479745577e+15
vector 1816  BasicTopology.peer[23].bitTorrentApp.bitTorrentClient.contentManager_51  TotalBytesDownloaded:vector  ETV
attr source ContentManager_TotalBytesDownloaded
attr title "Total of Bytes Downloaded, vector"
attr unit B
1816	471669 8748 6641250 214656250 36011.6600145923 36188.817645463432 213 16384 3489792 373407744 8.7078287599206e+14
vector 1928  BasicTopology.peer[37].bitTorrentApp.bitTorrentClient.contentManager_51  TotalBytesDownloaded:vector  ETV
attr source ContentManager_TotalBytesDownloaded
attr title "Total of Bytes Downloaded, vector"
attr unit B
1928	697216 7884 6656327 229825241 36011.677760822295 36212.16966096243 192 16384 3145728 303562752 6.3827508985856e+14
vector 1872  BasicTopology.peer[30].bitTorrentApp.bitTorrentClient.contentManager_51  TotalBytesDownloaded:vector  ETV
attr source ContentManager_TotalBytesDownloaded
attr title "Total of Bytes Downloaded, vector"
attr unit B
1872	574759 8208 6708329 236483180 36011.731286828097 36302.472453794668 200 16384 3276800 329318400 7.212055396352e+14
vector 1984  BasicTopology.peer[44].bitTorrentApp.bitTorrentClient.contentManager_51  TotalBytesDownloaded:vector  ETV
attr source ContentManager_TotalBytesDownloaded
attr title "Total of Bytes Downloaded, vector"
attr unit B
1984	820802 8470 6863530 229447897 36011.886886242121 36211.653983645402 206 16384 3375104 349323264 7.879093345321e+14
vector 1807  BasicTopology.peer[22].bitTorrentApp.bitTorrentClient.contentManager_51  PiecesDownloaded:vector  ETV
attr source ContentManager_PieceDownloaded
attr title "Pieces Downloaded, vector"
1807	456067 869 7068011 233414316 36012.144771789199 36222.326330212856 24 0 23 276 4324
vector 1888  BasicTopology.peer[32].bitTorrentApp.bitTorrentClient.contentManager_51  TotalBytesDownloaded:vector  ETV
attr source ContentManager_TotalBytesDownloaded
attr title "Total of Bytes Downloaded, vector"
attr unit B
1888	619024 8875 7081071 223582497 36012.180187766317 36202.178185679252 216 16384 3538944 383975424 9.0800869972378e+14
vector 1864  BasicTopology.peer[29].bitTorrentApp.bitTorrentClient.contentManager_51  TotalBytesDownloaded:vector  ETV
attr source ContentManager_TotalBytesDownloaded
attr title "Total of Bytes Downloaded, vector"
attr unit B
1864	558341 8943 7225576 236446890 36012.47057036658 36302.390372083789 217 16384 3555328 387530752 9.2064905691136e+14
vector 1736  BasicTopology.peer[13].bitTorrentApp.bitTorrentClient.contentManager_51  TotalBytesDownloaded:vector  ETV
attr source ContentManager_TotalBytesDownloaded