file 900428 1593887688                                          
version 2
run Test-24-20200526-20:45:09-4475
attr configname Test
attr datetime 20200526-20:45:09
attr experiment "\"Simulation Test\""
attr inifile BasicConfig.ini
attr iterationvars ""
attr iterationvars2 $repetition=24
attr measurement "\"Peers: $peers, Rate: $rate\""
attr network BasicTopology
attr processid 4475
attr repetition 24
attr replication #24
attr resultdir results
attr runnumber 24
attr seedset 24
vector 3  BasicTopology.peer[1].bitTorrentApp.bitTorrentClient  DownloadComplete_Test:vector  ETV
attr source BitTorrentClient_DownloadComplete_Test
attr title "Descargas completas (prueba), vector"
3	42445 65 153 146814030 36001 36118.879911262972 2 36001 36118.879911263 72119.879911263 2600645487.0442
vector 5  BasicTopology.peer[2].bitTorrentApp.bitTorrentClient  DownloadComplete_Test:vector  ETV
attr source BitTorrentClient_DownloadComplete_Test
attr title "Descargas completas (prueba), vector"
5	42510 65 154 235519300 36001 36210.177720067183 2 36001 36210.177720067 72211.177720067 2607248971.5188
vector 7  BasicTopology.peer[3].bitTorrentApp.bitTorrentClient  DownloadComplete_Test:vector  ETV
attr source BitTorrentClient_DownloadComplete_Test
attr title "Descargas completas (prueba), vector"
7	42575 65 155 111895562 36001 36093.562091462942 2 36001 36093.562091463 72094.562091463 2598817225.4503
vector 9  BasicTopology.peer[4].bitTorrentApp.bitTorrentClient  DownloadComplete_Test:vector  ETV
attr source BitTorrentClient_DownloadComplete_Test
attr title "Descargas completas (prueba), vector"
9	42640 65 156 188625756 36001 36153.483348478058 2 36001 36153.483348478 72154.483348478 2603146359.2287
vector 11  BasicTopology.peer[5].bitTorrentApp.bitTorrentClient  DownloadComplete_Test:vector  ETV
attr source BitTorrentClient_DownloadComplete_Test
attr title "Descargas completas (prueba), vector"
11	42705 66 157 206265089 36001 36171.06930311105 2 36001 36171.069303111 72172.069303111 2604418255.5305
vector 13  BasicTopology.peer[6].bitTorrentApp.bitTorrentClient  DownloadComplete_Test:vector  ETV
attr source BitTorrentClient_DownloadComplete_Test
attr title "Descargas completas (prueba), vector"
13	42771 67 158 238991373 36001 36218.584013276865 2 36001 36218.584013277 72219.584013277 2607857828.9268
vector 15  BasicTopology.peer[7].bitTorrentApp.bitTorrentClient  DownloadComplete_Test:vector  ETV
attr source BitTorrentClient_DownloadComplete_Test
attr title "Descargas completas (prueba), vector"
15	42838 67 159 240379038 36001 36224.579960557913 2 36001 36224.579960558 72225.579960558 2608292194.3189
vector 17  BasicTopology.peer[8].bitTorrentApp.bitTorrentClient  DownloadComplete_Test:vector  ETV
attr source BitTorrentClient_DownloadComplete_Test
attr title "Descargas completas (prueba), vector"
17	42905 67 160 232114187 36001 36203.614745022994 2 36001 36203.614745023 72204.614745023 2606773721.606
vector 19  BasicTopology.peer[9].bitTorrentApp.bitTorrentClient  DownloadComplete_Test:vector  ETV
attr source BitTorrentClient_DownloadComplete_Test
attr title "Descargas completas (prueba), vector"
19	42972 67 161 224255665 36001 36191.210329416725 2 36001 36191.210329417 72192.210329417 2605875706.1081
vector 21  BasicTopology.peer[10].bitTorrentApp.bitTorrentClient  DownloadComplete_Test:vector  ETV
attr source BitTorrentClient_DownloadComplete_Test
attr title "Descargas completas (prueba), vector"
21	43039 67 162 198870217 36001 36163.161275579076 2 36001 36163.161275579 72164.161275579 2603846234.4435
vector 23  BasicTopology.peer[11].bitTorrentApp.bitTorrentClient  DownloadComplete_Test:vector  ETV
attr source BitTorrentClient_DownloadComplete_Test
attr title "Descargas completas (prueba), vector"
23	43106 67 163 225450897 36001 36193.157835111727 2 36001 36193.157835112 72194.157835112 2606016675.0773
vector 25  BasicTopology.peer[12].bitTorrentApp.bitTorrentClient  DownloadComplete_Test:vector  ETV
attr source BitTorrentClient_DownloadComplete_Test
attr title "Descargas completas (prueba), vector"
25	43173 67 164 184642890 36001 36150.054305507679 2 36001 36150.054305508 72151.054305508 2602898427.2912
vector 27  BasicTopology.peer[13].bitTorrentApp.bitTorrentClient  DownloadComplete_Test:vector  ETV
attr source BitTorrentClient_DownloadComplete_Test
attr title "Descargas completas (prueba), vector"
27	43240 67 165 234155873 36001 36207.759529527806 2 36001 36207.759529528 72208.759529528 2607073851.1481
vector 29  BasicTopology.peer[14].bitTorrentApp.bitTorrentClient  DownloadComplete_Test:vector  ETV
attr source BitTorrentClient_DownloadComplete_Test
attr title "Descargas completas (prueba), vector"
29	43307 67 166 239542666 36001 36221.428179213584 2 36001 36221.428179214 72222.428179214 2608063860.342
vector 31  BasicTopology.peer[15].bitTorrentApp.bitTorrentClient  DownloadComplete_Test:vector  ETV
attr source BitTorrentClient_DownloadComplete_Test
attr title "Descargas completas (prueba), vector"
31	43374 65 167 224755633 36001 36192.2519670231 2 36001 36192.251967023 72193.251967023 2605951103.4445
vector 33  BasicTopology.peer[16].bitTorrentApp.bitTorrentClient  DownloadComplete_Test:vector  ETV
attr source BitTorrentClient_DownloadComplete_Test
attr title "Descargas completas (prueba), vector"
33	43439 67 168 222988678 36001 36189.679998248938 2 36001 36189.679998249 72190.679998249 2605764939.3757
vector 35  BasicTopology.peer[17].bitTorrentApp.bitTorrentClient  DownloadComplete_Test:vector  ETV
attr source BitTorrentClient_DownloadComplete_Test
attr title "Descargas completas (prueba), vector"
35	43506 66 169 234938876 36001 36208.88374430884 2 36001 36208.883744309 72209.883744309 2607155263.0089
vector 37  BasicTopology.peer[18].bitTorrentApp.bitTorrentClient  DownloadComplete_Test:vector  ETV
attr source BitTorrentClient_DownloadComplete_Test
attr title "Descargas completas (prueba), vector"
37	43572 65 170 234032674 36001 36207.573660599846 2 36001 36207.5736606 72208.5736606 2607060391.3878
vector 39  BasicTopology.peer[19].bitTorrentApp.bitTorrentClient  DownloadComplete_Test:vector  ETV
attr source BitTorrentClient_DownloadComplete_Test
attr title "Descargas completas (prueba), vector"
39	43637 67 171 221905302 36001 36188.484288736267 2 36001 36188.484288736 72189.484288736 2605678396.1161
vector 41  BasicTopology.peer[20].bitTorrentApp.bitTorrentClient  DownloadComplete_Test:vector  ETV
attr source BitTorrentClient_DownloadComplete_Test
attr title "Descargas completas (prueba), vector"
41	43704 67 172 223366296 36001 36190.103592821679 2 36001 36190.103592822 72191.103592822 2605795599.0592
vector 43  BasicTopology.peer[21].bitTorrentApp.bitTorrentClient  DownloadComplete_Test:vector  ETV
attr source BitTorrentClient_DownloadComplete_Test
attr title "Descargas completas (prueba), vector"
43	43771 67 173 235194979 36001 36209.512554404078 2 36001 36209.512554404 72210.512554404 2607200800.4275
vector 45  BasicTopology.peer[22].bitTorrentApp.bitTorrentClient  DownloadComplete_Test:vector  ETV
attr source BitTorrentClient_DownloadComplete_Test
attr title "Descargas completas (prueba), vector"
45	43838 67 174 241109704 36001 36230.990700578261 2 36001 36230.990700578 72231.990700578 2608756688.1454
vector 47  BasicTopology.peer[23].bitTorrentApp.bitTorrentClient  DownloadComplete_Test:vector  ETV
attr source BitTorrentClient_DownloadComplete_Test
attr title "Descargas completas (prueba), vector"
47	43905 67 175 211743242 36001 36176.822508911242 2 36001 36176.822508911 72177.822508911 2604834487.8412
vector 49  BasicTopology.peer[24].bitTorrentApp.bitTorrentClient  DownloadComplete_Test:vector  ETV
attr source BitTorrentClient_DownloadComplete_Test
attr title "Descargas completas (prueba), vector"
49	43972 67 176 223598038 36001 36190.340521324102 2 36001 36190.340521324 72191.340521324 2605812748.0494
vector 51  BasicTopology.peer[25].bitTorrentApp.bitTorrentClient  DownloadComplete_Test:vector  ETV
attr source BitTorrentClient_DownloadComplete_Test
attr title "Descargas completas (prueba), vector"
51	44039 67 177 228520588 36001 36197.481812135161 2 36001 36197.481812135 72198.481812135 2606329690.5398
vector 53  BasicTopology.peer[26].bitTorrentApp.bitTorrentClient  DownloadComplete_Test:vector  ETV
attr source BitTorrentClient_DownloadComplete_Test
attr title "Descargas completas (prueba), vector"
53	44106 67 178 223017935 36001 36189.704717682936 2 36001 36189.704717683 72190.704717683 2605766728.5531
vector 55  BasicTopology.peer[27].bitTorrentApp.bitTorrentClient  DownloadComplete_Test:vector  ETV
attr source BitTorrentClient_DownloadComplete_Test
attr title "Descargas completas (prueba), vector"
55	44173 67 179 240847987 36001 36229.140455965413 2 36001 36229.140455965 72230.140455965 2608622619.178
vector 57  BasicTopology.peer[28].bitTorrentApp.bitTorrentClient  DownloadComplete_Test:vector  ETV
attr source BitTorrentClient_DownloadComplete_Test
attr title "Descargas completas (prueba), vector"
57	44240 66 180 222585850 36001 36189.269831490416 2 36001 36189.26983149 72190.26983149 2605735251.9364
vector 59  BasicTopology.peer[29].bitTorrentApp.bitTorrentClient  DownloadComplete_Test:vector  ETV
attr source BitTorrentClient_DownloadComplete_Test
attr title "Descargas completas (prueba), vector"
59	44306 67 181 238452672 36001 36216.796269501124 2 36001 36216.796269501 72217.796269501 2607728333.0265
vector 61  BasicTopology.peer[30].bitTorrentApp.bitTorrentClient  DownloadComplete_Test:vector  ETV
attr source BitTorrentClient_DownloadComplete_Test
attr title "Descargas completas (prueba), vector"
61	44373 67 182 228722604 36001 36197.804063928557 2 36001 36197.804063929 72198.804063929 2606353020.0506
vector 63  BasicTopology.peer[31].bitTorrentApp.bitTorrentClient  DownloadComplete_Test:vector  ETV
attr source BitTorrentClient_DownloadComplete_Test
attr title "Descargas completas (prueba), vector"
63	44440 67 183 225341355 36001 36193.050130963561 2 36001 36193.050130964 72194.050130964 2606008878.7825
vector 65  BasicTopology.peer[32].bitTorrentApp.bitTorrentClient  DownloadComplete_Test:vector  ETV
attr source BitTorrentClient_DownloadComplete_Test
attr title "Descargas completas (prueba), vector"
65	44507 66 184 242939159 36001 36302.60016616509 2 36001 36302.600166165 72303.600166165 2613950779.8244
vector 67  BasicTopology.peer[33].bitTorrentApp.bitTorrentClient  DownloadComplete_Test:vector  ETV
attr source BitTorrentClient_DownloadComplete_Test
attr title "Descargas completas (prueba), vector"
67	44573 67 185 200887470 36001 36165.433170307758 2 36001 36165.433170308 72166.433170308 2604010557.396
vector 69  BasicTopology.peer[34].bitTorrentApp.bitTorrentClient  DownloadComplete_Test:vector  ETV
attr source BitTorrentClient_DownloadComplete_Test
attr title "Descargas completas (prueba), vector"
69	44640 67 186 224933406 36001 36192.509562037964 2 36001 36192.509562038 72193.509562038 2605969749.3982
vector 71  BasicTopology.peer[35].bitTorrentApp.bitTorrentClient  DownloadComplete_Test:vector  ETV
attr source BitTorrentClient_DownloadComplete_Test
attr title "Descargas completas (prueba), vector"
71	44707 67 187 239985661 36001 36222.805161293243 2 36001 36222.805161293 72223.805161293 2608163614.753
vector 73  BasicTopology.peer[36].bitTorrentApp.bitTorrentClient  DownloadComplete_Test:vector  ETV
attr source BitTorrentClient_DownloadComplete_Test
attr title "Descargas completas (prueba), vector"
73	44774 67 188 241819383 36001 36239.468296644544 2 36001 36239.468296645 72240.468296645 2609371063.4235
vector 75  BasicTopology.peer[37].bitTorrentApp.bitTorrentClient  DownloadComplete_Test:vector  ETV
attr source BitTorrentClient_DownloadComplete_Test
attr title "Descargas completas (prueba), vector"
75	44841 67 189 240780732 36001 36228.996472025239 2 36001 36228.996472025 72229.996472025 2608612186.37
vector 77  BasicTopology.peer[38].bitTorrentApp.bitTorrentClient  DownloadComplete_Test:vector  ETV
attr source BitTorrentClient_DownloadComplete_Test
attr title "Descargas completas (prueba), vector"
77	44908 67 190 236382901 36001 36211.802300248668 2 36001 36211.802300249 72212.802300249 2607366626.8323
vector 79  BasicTopology.peer[39].bitTorrentApp.bitTorrentClient  DownloadComplete_Test:vector  ETV
attr source BitTorrentClient_DownloadComplete_Test
attr title "Descargas completas (prueba), vector"
79	44975 66 191 203998182 36001 36168.691480509707 2 36001 36168.69148051 72169.69148051 2604246244.4123
vector 81  BasicTopology.peer[40].bitTorrentApp.bitTorrentClient  DownloadComplete_Test:vector  ETV
attr source BitTorrentClient_DownloadComplete_Test
attr title "Descargas completas (prueba), vector"
81	45041 67 192 234566210 36001 36208.355598309451 2 36001 36208.355598309 72209.355598309 2607117016.1336
vector 83  BasicTopology.peer[41].bitTorrentApp.bitTorrentClient  DownloadComplete_Test:vector  ETV
attr source BitTorrentClient_DownloadComplete_Test
attr title "Descargas completas (prueba), vector"
83	45108 67 193 231821162 36001 36203.196455927787 2 36001 36203.196455928 72204.196455928 2606743434.6265
vector 85  BasicTopology.peer[42].bitTorrentApp.bitTorrentClient  DownloadComplete_Test:vector  ETV
attr source BitTorrentClient_DownloadComplete_Test
attr title "Descargas completas (prueba), vector"
85	45175 67 194 201028012 36001 36165.572780693511 2 36001 36165.572780694 72166.572780694 2604020655.5557
vector 87  BasicTopology.peer[43].bitTorrentApp.bitTorrentClient  DownloadComplete_Test:vector  ETV
attr source BitTorrentClient_DownloadComplete_Test
attr title "Descargas completas (prueba), vector"
87	45242 67 195 242158542 36001 36254.249031984107 2 36001 36254.249031984 72255.249031984 2610442573.8731
vector 89  BasicTopology.peer[44].bitTorrentApp.bitTorrentClient  DownloadComplete_Test:vector  ETV
attr source BitTorrentClient_DownloadComplete_Test
attr title "Descargas completas (prueba), vector"
89	45309 67 196 233911828 36001 36207.396879064098 2 36001 36207.396879064 72208.396879064 2607047589.7581
vector 91  BasicTopology.peer[45].bitTorrentApp.bitTorrentClient  DownloadComplete_Test:vector  ETV
attr source BitTorrentClient_DownloadComplete_Test
attr title "Descargas completas (prueba), vector"
91	45376 67 197 229010764 36001 36198.452563859234 2 36001 36198.452563859 72199.452563859 2606399969.018
vector 93  BasicTopology.peer[46].bitTorrentApp.bitTorrentClient  DownloadComplete_Test:vector  ETV
attr source BitTorrentClient_DownloadComplete_Test
attr title "Descargas completas (prueba), vector"
93	45443 67 198 231359627 36001 36202.364990610926 2 36001 36202.364990611 72203.364990611 2606683231.9134
vector 95  BasicTopology.peer[47].bitTorrentApp.bitTorrentClient  DownloadComplete_Test:vector  ETV
attr source BitTorrentClient_DownloadComplete_Test
attr title "Descargas completas (prueba), vector"
95	45510 67 199 219895722 36001 36186.112598406389 2 36001 36186.112598406 72187.112598406 2605506745.9845
vector 97  BasicTopology.peer[48].bitTorrentApp.bitTorrentClient  DownloadComplete_Test:vector  ETV
attr source BitTorrentClient_DownloadComplete_Test
attr title "Descargas completas (prueba), vector"
97	45577 67 200 240173481 36001 36224.137429992054 2 36001 36224.137429992 72225.137429992 2608260133.5469
vector 99  BasicTopology.peer[49].bitTorrentApp.bitTorrentClient  DownloadComplete_Test:vector  ETV
attr source BitTorrentClient_DownloadComplete_Test
attr title "Descargas completas (prueba), vector"
99	45644 67 201 230632843 36001 36201.297464126668 2 36001 36201.297464127 72202.297464127 2606605939.0862
vector 1633  BasicTopology.peer[0].bitTorrentApp.bitTorrentClient.contentManager_51  TotalBytesUploaded:vector  ETV
attr source ContentManager_TotalBytesUploaded
attr title "Total of Bytes Uploaded, vector"
attr unit B
1633	45711 17610 1358756 233514249 36002.612698108669 36206.44171911942 433 16384 7094272 1539457024 7.2892920616714e+15
vector 1888  BasicTopology.peer[32].bitTorrentApp.bitTorrentClient.contentManager_51  TotalBytesDownloaded:vector  ETV
attr source ContentManager_TotalBytesDownloaded
attr title "Total of Bytes Downloaded, vector"
attr unit B
1888	593654 7996 1446578 242939159 36002.748992106369 36302.60016616509 195 16384 3194880 313098240 6.6858413719552e+14
vector 1728  BasicTopology.peer[12].bitTorrentApp.bitTorrentClient.contentManager_51  TotalBytesDownloaded:vector  ETV
attr source ContentManager_TotalBytesDownloaded
attr title "Total of Bytes Downloaded, vector"
attr unit B
1728	282480 7769 2194145 184642890 36004.233481995103 36150.054305507679 192 16384 3145728 303562752 6.3827508985856e+14
vector 1887  BasicTopology.peer[32].bitTorrentApp.bitTorrentClient.contentManager_51  PiecesDownloaded:vector  ETV
attr source ContentManager_PieceDownloaded
attr title "Pieces Downloaded, vector"
1887	592790 864 2967409 242939159 36005.174232429271 36302.60016616509 24 0 23 276 4324
vector 1889  BasicTopology.peer[32].bitTorrentApp.bitTorrentClient.contentManager_51  TotalBytesUploaded:vector  ETV
attr source ContentManager_TotalBytesUploaded
attr title "Total of Bytes Uploaded, vector"
attr unit B
1889	601650 11112 2986141 141533975 36005.197302615652 36114.945012283144 274 16384 4489216 617267200 1.8507349622784e+15
vector 1656  BasicTopology.peer[3].bitTorrentApp.bitTorrentClient.contentManager_51  TotalBytesDownloaded:vector  ETV
attr source ContentManager_TotalBytesDownloaded
attr title "Total of Bytes Downloaded, vector"
attr unit B
1656	105869 7769 3047764 111895562 36005.297699153583 36093.562091462942 192 16384 3145728 303562752 6.3827508985856e+14
vector 1760  BasicTopology.peer[16].bitTorrentApp.bitTorrentClient.contentManager_51  TotalBytesDownloaded:vector  ETV
attr source ContentManager_TotalBytesDownloaded
attr title "Total of Bytes Downloaded, vector"
attr unit B
1760	341819 8253 3052535 222988678 36005.304296279043 36189.679998248938 201 16384 3293184 332611584 7.3205060049306e+14
vector 1712  BasicTopology.peer[10].bitTorrentApp.bitTorrentClient.contentManager_51  TotalBytesDownloaded:vector  ETV
attr source ContentManager_TotalBytesDownloaded
attr title "Total of Bytes Downloaded, vector"
attr unit B
1712	240359 7776 3158910 198870217 36005.444035575648 36163.161275579076 192 16384 3145728 303562752 6.3827508985856e+14
vector 1759  BasicTopology.peer[16].bitTorrentApp.bitTorrentClient.contentManager_51  PiecesDownloaded:vector  ETV
attr source ContentManager_PieceDownloaded
attr title "Pieces Downloaded, vector"
1759	340953 866 3409783 222988678 36005.78025322738 36189.679998248938 24 0 23 276 4324
vector 1761  BasicTopology.peer[16].bitTorrentApp.bitTorrentClient.contentManager_51  TotalBytesUploaded:vector  ETV
attr source ContentManager_TotalBytesUploaded
attr title "Total of Bytes Uploaded, vector"
attr unit B
1761	350072 3817 3425760 172042275 36005.801714287999 36139.019073633431 96 16384 1572864 76283904 80406082748416
vector 1776  BasicTopology.peer[18].bitTorrentApp.bitTorrentClient.contentManager_51  TotalBytesDownloaded:vector  ETV
attr source ContentManager_TotalBytesDownloaded
attr title "Total of Bytes Downloaded, vector"
attr unit B
1776	372707 7871 4003176 234032674 36007.246231642351 36207.573660599846 192 16384 3145728 303562752 6.3827508985856e+14
vector 1727  BasicTopology.peer[12].bitTorrentApp.bitTorrentClient.contentManager_51  PiecesDownloaded:vector  ETV
attr source ContentManager_PieceDownloaded
attr title "Pieces Downloaded, vector"
1727	281627 853 4062826 184642890 36007.468492643915 36150.054305507679 24 0 23 276 4324
vector 1729  BasicTopology.peer[12].bitTorrentApp.bitTorrentClient.contentManager_51  TotalBytesUploaded:vector  ETV
attr source ContentManager_TotalBytesUploaded
attr title "Total of Bytes Uploaded, vector"
attr unit B
1729	290249 15387 4083780 171682566 36007.557388007346 36138.710447674549 378 16384 6193152 1173602304 4.8519410708644e+15
vector 1711  BasicTopology.peer[10].bitTorrentApp.bitTorrentClient.contentManager_51  PiecesDownloaded:vector  ETV
attr source ContentManager_PieceDownloaded
attr title "Pieces Downloaded, vector"
1711	239508 851 4325653 198870217 36007.921183680115 36163.161275579076 24 0 23 276 4324
vector 1896  BasicTopology.peer[33].bitTorrentApp.bitTorrentClient.contentManager_51  TotalBytesDownloaded:vector  ETV
attr source ContentManager_TotalBytesDownloaded
attr title "Total of Bytes Downloaded, vector"
attr unit B
1896	613629 7875 4329690 200887470 36007.926180913155 36165.433170307758 192 16384 3145728 303562752 6.3827508985856e+14
vector 1904  BasicTopology.peer[34].bitTorrentApp.bitTorrentClient.contentManager_51  TotalBytesDownloaded:vector  ETV
attr source ContentManager_TotalBytesDownloaded
attr title "Total of Bytes Downloaded, vector"
attr unit B
1904	634156 7906 4370523 224933406 36007.971952743846 36192.509562037964 192 16384 3145728 303562752 6.3827508985856e+14
vector 1713  BasicTopology.peer[10].bitTorrentApp.bitTorrentClient.contentManager_51  TotalBytesUploaded:vector  ETV
attr source ContentManager_TotalBytesUploaded
attr title "Total of Bytes Uploaded, vector"
attr unit B
1713	248135 16127 4380081 214623987 36007.984493288009 36180.045081933268 395 16384 6471680 1281392640 5.5355068592947e+15
vector 1720  BasicTopology.peer[11].bitTorrentApp.bitTorrentClient.contentManager_51  TotalBytesDownloaded:vector  ETV
attr source ContentManager_TotalBytesDownloaded
attr title "Total of Bytes Downloaded, vector"
attr unit B
1720	265128 7881 4800164 225450897 36008.646669451408 36193.157835111727 192 16384 3145728 303562752 6.3827508985856e+14
vector 1672  BasicTopology.peer[5].bitTorrentApp.bitTorrentClient.contentManager_51  TotalBytesDownloaded:vector  ETV
attr source ContentManager_TotalBytesDownloaded
attr title "Total of Bytes Downloaded, vector"
attr unit B
1672	151672 8173 4893168 206265089 36009.005936225763 36171.06930311105 200 16384 3276800 329318400 7.212055396352e+14
vector 1792  BasicTopology.peer[20].bitTorrentApp.bitTorrentClient.contentManager_51  TotalBytesDownloaded:vector  ETV
attr source ContentManager_TotalBytesDownloaded
attr title "Total of Bytes Downloaded, vector"
attr unit B
1792	410873 8331 5010734 235461879 36009.146506247677 36209.950845699747 202 16384 3309568 335921152 7.4300384083968e+14
vector 1903  BasicTopology.peer[34].bitTorrentApp.bitTorrentClient.contentManager_51  PiecesDownloaded:vector  ETV
attr source ContentManager_PieceDownloaded
attr title "Pieces Downloaded, vector"
1903	633285 871 5093664 224933406 36009.236343285458 36192.509562037964 24 0 23 276 4324
vector 1905  BasicTopology.peer[34].bitTorrentApp.bitTorrentClient.contentManager_51  TotalBytesUploaded:vector  ETV
attr source ContentManager_TotalBytesUploaded
attr title "Total of Bytes Uploaded, vector"
attr unit B
1905	642062 8808 5116510 213777472 36009.259704544887 36179.145952332271 215 16384 3522560 380436480 8.9548457508864e+14
vector 1671  BasicTopology.peer[5].bitTorrentApp.bitTorrentClient.contentManager_51  PiecesDownloaded:vector  ETV
attr source ContentManager_PieceDownloaded
attr title "Pieces Downloaded, vector"
1671	150810 862 5199586 206265089 36009.368249175262 36171.06930311105 24 0 23 276 4324
vector 1673  BasicTopology.peer[5].bitTorrentApp.bitTorrentClient.contentManager_51  TotalBytesUploaded:vector  ETV
attr source ContentManager_TotalBytesUploaded
attr title "Total of Bytes Uploaded, vector"
attr unit B
1673	159845 15278 5247506 206354883 36009.442491453127 36171.172565081245 372 16384 6094848 1136689152 4.6248395748147e+15
vector 1704  BasicTopology.peer[9].bitTorrentApp.bitTorrentClient.contentManager_51  TotalBytesDownloaded:vector  ETV
attr source ContentManager_TotalBytesDownloaded
attr title "Total of Bytes Downloaded, vector"
attr unit B
1704	224778 8542 5329392 224255665 36009.534349889221 36191.210329416725 208 16384 3407872 356122624 8.1102511695462e+14
vector 1775  BasicTopology.peer[18].bitTorrentApp.bitTorrentClient.contentManager_51  PiecesDownloaded:vector  ETV
attr source ContentManager_PieceDownloaded
attr title "Pieces Downloaded, vector"
1775	371843 864 5344745 234032674 36009.553652774087 36207.573660599846 24 0 23 276 4324
vector 1777  BasicTopology.peer[18].bitTorrentApp.bitTorrentClient.contentManager_51  TotalBytesUploaded:vector  ETV
attr source ContentManager_TotalBytesUploaded
attr title "Total of Bytes Uploaded, vector"
attr unit B
1777	380578 12277 5402213 190012892 36009.618122102278 36154.68308995981 301 16384 4931584 744669184 2.4523326420419e+15
vector 1808  BasicTopology.peer[22].bitTorrentApp.bitTorrentClient.contentManager_51  TotalBytesDownloaded:vector  ETV
attr source ContentManager_TotalBytesDownloaded
attr title "Total of Bytes Downloaded, vector"
attr unit B
1808	442043 8349 5454635 241109704 36009.668212559443 36230.990700578261 203 16384 3325952 339247104 7.5406579754598e+14
vector 1912  BasicTopology.peer[35].bitTorrentApp.bitTorrentClient.contentManager_51  TotalBytesDownloaded:vector  ETV
attr source ContentManager_TotalBytesDownloaded
attr title "Total of Bytes Downloaded, vector"
attr unit B
1912	651737 7917 5485469 239985661 36009.695941404443 36222.805161293243 193 16384 3162112 306724864 6.482740421591e+14
vector 1655  BasicTopology.peer[3].bitTorrentApp.bitTorrentClient.contentManager_51  PiecesDownloaded:vector  ETV
attr source ContentManager_PieceDownloaded
attr title "Pieces Downloaded, vector"
1655	105017 852 5617123 111895562 36009.943929721855 36093.562091462942 24 0 23 276 4324
vector 1657  BasicTopology.peer[3].bitTorrentApp.bitTorrentClient.contentManager_51  TotalBytesUploaded:vector  ETV
attr source ContentManager_TotalBytesUploaded
attr title "Total of Bytes Uploaded, vector"
attr unit B
1657	113638 14459 5628434 213441229 36009.95737433679 36178.827532577356 355 16384 5816320 1035304960 4.0200974421197e+15
vector 1936  BasicTopology.peer[38].bitTorrentApp.bitTorrentClient.contentManager_51  TotalBytesDownloaded:vector  ETV
attr source ContentManager_TotalBytesDownloaded
attr title "Total of Bytes Downloaded, vector"
attr unit B
1936	693497 7882 6108384 236382901 36010.390836499913 36211.802300248668 192 16384 3145728 303562752 6.3827508985856e+14
vector 1688  BasicTopology.peer[7].bitTorrentApp.bitTorrentClient.contentManager_51  TotalBytesDownloaded:vector  ETV
attr source ContentManager_TotalBytesDownloaded
attr title "Total of Bytes Downloaded, vector"
attr unit B
1688	190450 7869 6218677 240379038 36010.570098951879 36224.579960557913 192 16384 3145728 303562752 6.3827508985856e+14
vector 1664  BasicTopology.peer[4].bitTorrentApp.bitTorrentClient.contentManager_51  TotalBytesDownloaded:vector  ETV
attr source ContentManager_TotalBytesDownloaded
attr title "Total of Bytes Downloaded, vector"
attr unit B
1664	128959 8202 6307589 198216037 36010.66924051252 36162.507442727573 200 16384 3276800 329318400 7.212055396352e+14
vector 1736  BasicTopology.peer[13].bitTorrentApp.bitTorrentClient.contentManager_51  TotalBytesDownloaded:vector  ETV
attr source ContentManager_TotalBytesDownloaded
attr title "Total of Bytes Downloaded, vector"
attr unit B
1736	306506 7902 6317674 234155873 36010.680355001699 36207.759529527806 192 16384 3145728 303562752 6.3827508985856e+14
vector 1768  BasicTopology.peer[17].bitTorrentApp.bitTorrentClient.contentManager_51  TotalBytesDownloaded:vector  ETV
attr source ContentManager_TotalBytesDownloaded
attr title "Total of Bytes Downloaded, vector"
attr unit B
1768	354756 9234 6514159 236199973 36010.879342191382 36211.322989312802 224 16384 3670016 412876800 1.0124311658496e+15
vector 1856  BasicTopology.peer[28].bitTorrentApp.bitTorrentClient.contentManager_51  TotalBytesDownloaded:vector  ETV
attr source ContentManager_TotalBytesDownloaded
attr title "Total of Bytes Downloaded, vector"
attr unit B
1856	529185 8575 6546170 224067177 36010.912841069963 36190.930277907871 208 16384 3407872 356122624 8.1102511695462e+14
vector 1696  BasicTopology.peer[8].bitTorrentApp.bitTorrentClient.contentManager_51  TotalBytesDownloaded:vector  ETV
attr source ContentManager_TotalBytesDownloaded
attr title "Total of Bytes Downloaded, vector"
attr unit B
1696	211786 8322 6592268 232114187 36010.959088262906 36203.614745022994 202 16384 3309568 335921152 7.4300384083968e+14
vector 1703  BasicTopology.peer[9].bitTorrentApp.bitTorrentClient.contentManager_51  PiecesDownloaded:vector  ETV
attr source ContentManager_PieceDownloaded
attr title "Pieces Downloaded, vector"
1703	223915 863 6617094 224255665 36010.987566406928 36191.210329416725 24 0 23 276 4324
vector 1663  BasicTopology.peer[4].bitTorrentApp.bitTorrentClient.contentManager_51  PiecesDownloaded:vector  ETV
attr source ContentManager_PieceDownloaded
attr title "Pieces Downloaded, vector"
1663	128097 862 6654557 188625756 36011.028680965292 36153.483348478058 24 0 23 276 4324
vector 1705  BasicTopology.peer[9].bitTorrentApp.bitTorrentClient.contentManager_51  TotalBytesUploaded:vector  ETV
attr source ContentManager_TotalBytesUploaded
attr title "Total of Bytes Uploaded, vector"
attr unit B
1705	233320 6188 6667163 229115485 36011.042424980662 36198.593021984042 152 16384 2490368 190513152 3.1733902737408e+14
vector 1665  BasicTopology.peer[4].bitTorrentApp.bitTorrentClient.contentManager_51  TotalBytesUploaded:vector  ETV
attr source ContentManager_TotalBytesUploaded
attr title "Total of Bytes Uploaded, vector"
attr unit B
1665	137161 13649 6699310 188935828 36011.100473514813 36153.744148395548 333 16384 5455872 911130624 3.3189840279306e+15
vector 1640  BasicTopology.peer[1].bitTorrentApp.bitTorrentClient.contentManager_51  TotalBytesDownloaded:vector  ETV
attr source ContentManager_TotalBytesDownloaded
attr title "Total of Bytes Downloaded, vector"
attr unit B
1640	64174 7780 6702864 146814030 36011.104868174715 36118.879911262972 192 16384 3145728 303562752 6.3827508985856e+14
vector 1895  BasicTopology.peer[33].bitTorrentApp.bitTorrentClient.contentManager_51  PiecesDownloaded:vector  ETV
attr source ContentManager_PieceDownloaded
attr title "Pieces Downloaded, vector"