file 906024 1593887687                                          
version 2
run Test-7-20200526-20:42:42-4241
attr configname Test
attr datetime 20200526-20:42:42
attr experiment "\"Simulation Test\""
attr inifile BasicConfig.ini
attr iterationvars ""
attr iterationvars2 $repetition=7
attr measurement "\"Peers: $peers, Rate: $rate\""
attr network BasicTopology
attr processid 4241
attr repetition 7
attr replication #7
attr resultdir results
attr runnumber 7
attr seedset 7
vector 3  BasicTopology.peer[1].bitTorrentApp.bitTorrentClient  DownloadComplete_Test:vector  ETV
attr source BitTorrentClient_DownloadComplete_Test
attr title "Descargas completas (prueba), vector"
3	42439 65 153 131628636 36001 36102.945907686971 2 36001 36102.945907687 72103.945907687 2599494704.2134
vector 5  BasicTopology.peer[2].bitTorrentApp.bitTorrentClient  DownloadComplete_Test:vector  ETV
attr source BitTorrentClient_DownloadComplete_Test
attr title "Descargas completas (prueba), vector"
5	42504 65 154 133518508 36001 36104.340698519088 2 36001 36104.340698519 72105.340698519 2599595418.2747
vector 7  BasicTopology.peer[3].bitTorrentApp.bitTorrentClient  DownloadComplete_Test:vector  ETV
attr source BitTorrentClient_DownloadComplete_Test
attr title "Descargas completas (prueba), vector"
7	42569 65 155 182964668 36001 36150.777952453407 2 36001 36150.777952453 72151.777952453 2602950747.5676
vector 9  BasicTopology.peer[4].bitTorrentApp.bitTorrentClient  DownloadComplete_Test:vector  ETV
attr source BitTorrentClient_DownloadComplete_Test
attr title "Descargas completas (prueba), vector"
9	42634 64 156 204967095 36001 36177.473164539874 2 36001 36177.47316454 72178.47316454 2604881565.571
vector 11  BasicTopology.peer[5].bitTorrentApp.bitTorrentClient  DownloadComplete_Test:vector  ETV
attr source BitTorrentClient_DownloadComplete_Test
attr title "Descargas completas (prueba), vector"
11	42698 66 157 189919688 36001 36158.87472838159 2 36001 36158.874728382 72159.874728382 2603536222.6228
vector 13  BasicTopology.peer[6].bitTorrentApp.bitTorrentClient  DownloadComplete_Test:vector  ETV
attr source BitTorrentClient_DownloadComplete_Test
attr title "Descargas completas (prueba), vector"
13	42764 64 158 213206275 36001 36187.9399794498 2 36001 36187.93997945 72188.93997945 2605639000.9563
vector 15  BasicTopology.peer[7].bitTorrentApp.bitTorrentClient  DownloadComplete_Test:vector  ETV
attr source BitTorrentClient_DownloadComplete_Test
attr title "Descargas completas (prueba), vector"
15	42828 67 159 195312093 36001 36165.522409390691 2 36001 36165.522409391 72166.522409391 2604017012.1442
vector 17  BasicTopology.peer[8].bitTorrentApp.bitTorrentClient  DownloadComplete_Test:vector  ETV
attr source BitTorrentClient_DownloadComplete_Test
attr title "Descargas completas (prueba), vector"
17	42895 67 160 226370557 36001 36208.072186848956 2 36001 36208.072186849 72209.072186849 2607096492.4881
vector 19  BasicTopology.peer[9].bitTorrentApp.bitTorrentClient  DownloadComplete_Test:vector  ETV
attr source BitTorrentClient_DownloadComplete_Test
attr title "Descargas completas (prueba), vector"
19	42962 67 161 226300640 36001 36207.803959728965 2 36001 36207.803959729 72208.803959729 2607077068.5862
vector 21  BasicTopology.peer[10].bitTorrentApp.bitTorrentClient  DownloadComplete_Test:vector  ETV
attr source BitTorrentClient_DownloadComplete_Test
attr title "Descargas completas (prueba), vector"
21	43029 66 162 211428047 36001 36185.73420930267 2 36001 36185.734209303 72186.734209303 2605479361.2663
vector 23  BasicTopology.peer[11].bitTorrentApp.bitTorrentClient  DownloadComplete_Test:vector  ETV
attr source BitTorrentClient_DownloadComplete_Test
attr title "Descargas completas (prueba), vector"
23	43095 66 163 203103227 36001 36175.15278012578 2 36001 36175.152780126 72176.152780126 2604713679.6655
vector 25  BasicTopology.peer[12].bitTorrentApp.bitTorrentClient  DownloadComplete_Test:vector  ETV
attr source BitTorrentClient_DownloadComplete_Test
attr title "Descargas completas (prueba), vector"
25	43161 67 164 226671007 36001 36209.195537663665 2 36001 36209.195537664 72210.195537664 2607177842.4848
vector 27  BasicTopology.peer[13].bitTorrentApp.bitTorrentClient  DownloadComplete_Test:vector  ETV
attr source BitTorrentClient_DownloadComplete_Test
attr title "Descargas completas (prueba), vector"
27	43228 67 165 212681144 36001 36187.258645297058 2 36001 36187.258645297 72188.258645297 2605589689.2616
vector 29  BasicTopology.peer[14].bitTorrentApp.bitTorrentClient  DownloadComplete_Test:vector  ETV
attr source BitTorrentClient_DownloadComplete_Test
attr title "Descargas completas (prueba), vector"
29	43295 67 166 218696255 36001 36194.963212527277 2 36001 36194.963212527 72195.963212527 2606147362.9562
vector 31  BasicTopology.peer[15].bitTorrentApp.bitTorrentClient  DownloadComplete_Test:vector  ETV
attr source BitTorrentClient_DownloadComplete_Test
attr title "Descargas completas (prueba), vector"
31	43362 66 167 191041490 36001 36160.19662592288 2 36001 36160.196625923 72161.196625923 2603631821.0254
vector 33  BasicTopology.peer[16].bitTorrentApp.bitTorrentClient  DownloadComplete_Test:vector  ETV
attr source BitTorrentClient_DownloadComplete_Test
attr title "Descargas completas (prueba), vector"
33	43428 67 168 223069259 36001 36202.128129765738 2 36001 36202.128129766 72203.128129766 2606666082.124
vector 35  BasicTopology.peer[17].bitTorrentApp.bitTorrentClient  DownloadComplete_Test:vector  ETV
attr source BitTorrentClient_DownloadComplete_Test
attr title "Descargas completas (prueba), vector"
35	43495 67 169 215613480 36001 36190.625620668911 2 36001 36190.625620669 72191.625620669 2605833383.8154
vector 37  BasicTopology.peer[18].bitTorrentApp.bitTorrentClient  DownloadComplete_Test:vector  ETV
attr source BitTorrentClient_DownloadComplete_Test
attr title "Descargas completas (prueba), vector"
37	43562 67 170 224522820 36001 36204.749632687048 2 36001 36204.749632687 72205.749632687 2606855896.9655
vector 39  BasicTopology.peer[19].bitTorrentApp.bitTorrentClient  DownloadComplete_Test:vector  ETV
attr source BitTorrentClient_DownloadComplete_Test
attr title "Descargas completas (prueba), vector"
39	43629 67 171 224860874 36001 36205.366286548678 2 36001 36205.366286549 72206.366286549 2606900548.9432
vector 41  BasicTopology.peer[20].bitTorrentApp.bitTorrentClient  DownloadComplete_Test:vector  ETV
attr source BitTorrentClient_DownloadComplete_Test
attr title "Descargas completas (prueba), vector"
41	43696 67 172 220764791 36001 36197.724926834022 2 36001 36197.724926834 72198.724926834 2606347290.8787
vector 43  BasicTopology.peer[21].bitTorrentApp.bitTorrentClient  DownloadComplete_Test:vector  ETV
attr source BitTorrentClient_DownloadComplete_Test
attr title "Descargas completas (prueba), vector"
43	43763 67 173 216762474 36001 36192.336481076122 2 36001 36192.336481076 72193.336481076 2605957220.9594
vector 45  BasicTopology.peer[22].bitTorrentApp.bitTorrentClient  DownloadComplete_Test:vector  ETV
attr source BitTorrentClient_DownloadComplete_Test
attr title "Descargas completas (prueba), vector"
45	43830 67 174 230823913 36001 36224.790106434433 2 36001 36224.790106434 72225.790106434 2608307419.2552
vector 47  BasicTopology.peer[23].bitTorrentApp.bitTorrentClient  DownloadComplete_Test:vector  ETV
attr source BitTorrentClient_DownloadComplete_Test
attr title "Descargas completas (prueba), vector"
47	43897 67 175 202292869 36001 36174.090012253536 2 36001 36174.090012254 72175.090012254 2604636789.2147
vector 49  BasicTopology.peer[24].bitTorrentApp.bitTorrentClient  DownloadComplete_Test:vector  ETV
attr source BitTorrentClient_DownloadComplete_Test
attr title "Descargas completas (prueba), vector"
49	43964 67 176 202692276 36001 36174.568819152729 2 36001 36174.568819153 72175.568819153 2604671430.2516
vector 51  BasicTopology.peer[25].bitTorrentApp.bitTorrentClient  DownloadComplete_Test:vector  ETV
attr source BitTorrentClient_DownloadComplete_Test
attr title "Descargas completas (prueba), vector"
51	44031 67 177 221582191 36001 36199.076775340973 2 36001 36199.076775341 72200.076775341 2606445160.387
vector 53  BasicTopology.peer[26].bitTorrentApp.bitTorrentClient  DownloadComplete_Test:vector  ETV
attr source BitTorrentClient_DownloadComplete_Test
attr title "Descargas completas (prueba), vector"
53	44098 65 178 216957275 36001 36192.66684441021 2 36001 36192.66684441 72193.66684441 2605981134.3105
vector 55  BasicTopology.peer[27].bitTorrentApp.bitTorrentClient  DownloadComplete_Test:vector  ETV
attr source BitTorrentClient_DownloadComplete_Test
attr title "Descargas completas (prueba), vector"
55	44163 66 179 233377607 36001 36305.037224830326 2 36001 36305.03722483 72306.03722483 2614127728.8963
vector 57  BasicTopology.peer[28].bitTorrentApp.bitTorrentClient  DownloadComplete_Test:vector  ETV
attr source BitTorrentClient_DownloadComplete_Test
attr title "Descargas completas (prueba), vector"
57	44229 67 180 226776964 36001 36209.356372091975 2 36001 36209.356372092 72210.356372092 2607189489.8812
vector 59  BasicTopology.peer[29].bitTorrentApp.bitTorrentClient  DownloadComplete_Test:vector  ETV
attr source BitTorrentClient_DownloadComplete_Test
attr title "Descargas completas (prueba), vector"
59	44296 67 181 203079296 36001 36175.136437653972 2 36001 36175.136437654 72176.136437654 2604712497.2829
vector 61  BasicTopology.peer[30].bitTorrentApp.bitTorrentClient  DownloadComplete_Test:vector  ETV
attr source BitTorrentClient_DownloadComplete_Test
attr title "Descargas completas (prueba), vector"
61	44363 67 182 157492349 36001 36124.892974047401 2 36001 36124.892974047 72125.892974047 2601079893.3864
vector 63  BasicTopology.peer[31].bitTorrentApp.bitTorrentClient  DownloadComplete_Test:vector  ETV
attr source BitTorrentClient_DownloadComplete_Test
attr title "Descargas completas (prueba), vector"
63	44430 67 183 230475104 36001 36221.210134231847 2 36001 36221.210134232 72222.210134232 2608048064.5882
vector 65  BasicTopology.peer[32].bitTorrentApp.bitTorrentClient  DownloadComplete_Test:vector  ETV
attr source BitTorrentClient_DownloadComplete_Test
attr title "Descargas completas (prueba), vector"
65	44497 67 184 219980740 36001 36196.530248302907 2 36001 36196.530248303 72197.530248303 2606260803.0163
vector 67  BasicTopology.peer[33].bitTorrentApp.bitTorrentClient  DownloadComplete_Test:vector  ETV
attr source BitTorrentClient_DownloadComplete_Test
attr title "Descargas completas (prueba), vector"
67	44564 67 185 222423733 36001 36200.770160941385 2 36001 36200.770160941 72201.770160941 2606567761.2453
vector 69  BasicTopology.peer[34].bitTorrentApp.bitTorrentClient  DownloadComplete_Test:vector  ETV
attr source BitTorrentClient_DownloadComplete_Test
attr title "Descargas completas (prueba), vector"
69	44631 66 186 216700327 36001 36192.16333174421 2 36001 36192.163331744 72193.163331744 2605944687.6316
vector 71  BasicTopology.peer[35].bitTorrentApp.bitTorrentClient  DownloadComplete_Test:vector  ETV
attr source BitTorrentClient_DownloadComplete_Test
attr title "Descargas completas (prueba), vector"
71	44697 67 187 226619430 36001 36208.952413439485 2 36001 36208.952413439 72209.952413439 2607160235.8787
vector 73  BasicTopology.peer[36].bitTorrentApp.bitTorrentClient  DownloadComplete_Test:vector  ETV
attr source BitTorrentClient_DownloadComplete_Test
attr title "Descargas completas (prueba), vector"
73	44764 66 188 227987503 36001 36211.84259463356 2 36001 36211.842594634 72212.842594634 2607369545.0985
vector 75  BasicTopology.peer[37].bitTorrentApp.bitTorrentClient  DownloadComplete_Test:vector  ETV
attr source BitTorrentClient_DownloadComplete_Test
attr title "Descargas completas (prueba), vector"
75	44830 67 189 230007518 36001 36219.078192001575 2 36001 36219.078192002 72220.078192002 2607893626.0784
vector 77  BasicTopology.peer[38].bitTorrentApp.bitTorrentClient  DownloadComplete_Test:vector  ETV
attr source BitTorrentClient_DownloadComplete_Test
attr title "Descargas completas (prueba), vector"
77	44897 67 190 223675801 36001 36203.053822950559 2 36001 36203.053822951 72204.053822951 2606733107.1075
vector 79  BasicTopology.peer[39].bitTorrentApp.bitTorrentClient  DownloadComplete_Test:vector  ETV
attr source BitTorrentClient_DownloadComplete_Test
attr title "Descargas completas (prueba), vector"
79	44964 67 191 215087244 36001 36190.101843424558 2 36001 36190.101843425 72191.101843425 2605795472.4375
vector 81  BasicTopology.peer[40].bitTorrentApp.bitTorrentClient  DownloadComplete_Test:vector  ETV
attr source BitTorrentClient_DownloadComplete_Test
attr title "Descargas completas (prueba), vector"
81	45031 67 192 189907776 36001 36158.864467581968 2 36001 36158.864467582 72159.864467582 2603535480.585
vector 83  BasicTopology.peer[41].bitTorrentApp.bitTorrentClient  DownloadComplete_Test:vector  ETV
attr source BitTorrentClient_DownloadComplete_Test
attr title "Descargas completas (prueba), vector"
83	45098 67 193 229006882 36001 36214.574106352591 2 36001 36214.574106353 72215.574106353 2607567378.7045
vector 85  BasicTopology.peer[42].bitTorrentApp.bitTorrentClient  DownloadComplete_Test:vector  ETV
attr source BitTorrentClient_DownloadComplete_Test
attr title "Descargas completas (prueba), vector"
85	45165 67 194 204374261 36001 36176.739772632628 2 36001 36176.739772633 72177.739772633 2604828501.5768
vector 87  BasicTopology.peer[43].bitTorrentApp.bitTorrentClient  DownloadComplete_Test:vector  ETV
attr source BitTorrentClient_DownloadComplete_Test
attr title "Descargas completas (prueba), vector"
87	45232 67 195 228729340 36001 36213.850860903561 2 36001 36213.850860904 72214.850860904 2607514995.1758
vector 89  BasicTopology.peer[44].bitTorrentApp.bitTorrentClient  DownloadComplete_Test:vector  ETV
attr source BitTorrentClient_DownloadComplete_Test
attr title "Descargas completas (prueba), vector"
89	45299 67 196 227723163 36001 36210.937432480564 2 36001 36210.937432481 72211.937432481 2607303990.7391
vector 91  BasicTopology.peer[45].bitTorrentApp.bitTorrentClient  DownloadComplete_Test:vector  ETV
attr source BitTorrentClient_DownloadComplete_Test
attr title "Descargas completas (prueba), vector"
91	45366 67 197 203522841 36001 36175.665760707946 2 36001 36175.665760708 72176.665760708 2604750794.2305
vector 93  BasicTopology.peer[46].bitTorrentApp.bitTorrentClient  DownloadComplete_Test:vector  ETV
attr source BitTorrentClient_DownloadComplete_Test
attr title "Descargas completas (prueba), vector"
93	45433 67 198 208397765 36001 36181.721234753153 2 36001 36181.721234753 72182.721234753 2605188952.5094
vector 95  BasicTopology.peer[47].bitTorrentApp.bitTorrentClient  DownloadComplete_Test:vector  ETV
attr source BitTorrentClient_DownloadComplete_Test
attr title "Descargas completas (prueba), vector"
95	45500 67 199 205120258 36001 36177.663218101057 2 36001 36177.663218101 72178.663218101 2604895316.9223
vector 97  BasicTopology.peer[48].bitTorrentApp.bitTorrentClient  DownloadComplete_Test:vector  ETV
attr source BitTorrentClient_DownloadComplete_Test
attr title "Descargas completas (prueba), vector"
97	45567 67 200 218670299 36001 36194.942276985181 2 36001 36194.942276985 72195.942276985 2606145847.4343
vector 99  BasicTopology.peer[49].bitTorrentApp.bitTorrentClient  DownloadComplete_Test:vector  ETV
attr source BitTorrentClient_DownloadComplete_Test
attr title "Descargas completas (prueba), vector"
99	45634 66 201 224101246 36001 36203.89824575585 2 36001 36203.898245756 72204.898245756 2606794249.1891
vector 1633  BasicTopology.peer[0].bitTorrentApp.bitTorrentClient.contentManager_51  TotalBytesUploaded:vector  ETV
attr source ContentManager_TotalBytesUploaded
attr title "Total of Bytes Uploaded, vector"
attr unit B
1633	45700 26867 164102 209031283 36001.047048091164 36182.578820517504 659 16384 10797056 3563028480 2.5666270904975e+16
vector 1640  BasicTopology.peer[1].bitTorrentApp.bitTorrentClient.contentManager_51  TotalBytesDownloaded:vector  ETV
attr source ContentManager_TotalBytesDownloaded
attr title "Total of Bytes Downloaded, vector"
attr unit B
1640	73417 7761 292847 131628636 36001.100704711736 36102.945907686971 192 16384 3145728 303562752 6.3827508985856e+14
vector 1639  BasicTopology.peer[1].bitTorrentApp.bitTorrentClient.contentManager_51  PiecesDownloaded:vector  ETV
attr source ContentManager_PieceDownloaded
attr title "Pieces Downloaded, vector"
1639	72567 850 1735101 131628636 36003.210641749733 36102.945907686971 24 0 23 276 4324
vector 1641  BasicTopology.peer[1].bitTorrentApp.bitTorrentClient.contentManager_51  TotalBytesUploaded:vector  ETV
attr source ContentManager_TotalBytesUploaded
attr title "Total of Bytes Uploaded, vector"
attr unit B
1641	81178 17402 1749927 203749681 36003.238258168225 36176.033135943849 427 16384 6995968 1497137152 6.9907921030349e+15
vector 1992  BasicTopology.peer[45].bitTorrentApp.bitTorrentClient.contentManager_51  TotalBytesDownloaded:vector  ETV
attr source ContentManager_TotalBytesDownloaded
attr title "Total of Bytes Downloaded, vector"
attr unit B
1992	834944 7885 1805638 203522841 36003.369265830682 36175.665760707946 192 16384 3145728 303562752 6.3827508985856e+14
vector 1872  BasicTopology.peer[30].bitTorrentApp.bitTorrentClient.contentManager_51  TotalBytesDownloaded:vector  ETV
attr source ContentManager_TotalBytesDownloaded
attr title "Total of Bytes Downloaded, vector"
attr unit B
1872	571903 8625 1830163 157492349 36003.887375866459 36124.892974047401 212 16384 3473408 369917952 8.586042277888e+14
vector 1952  BasicTopology.peer[40].bitTorrentApp.bitTorrentClient.contentManager_51  TotalBytesDownloaded:vector  ETV
attr source ContentManager_TotalBytesDownloaded
attr title "Total of Bytes Downloaded, vector"
attr unit B
1952	744028 7778 2335490 189907776 36004.259815115377 36158.864467581968 192 16384 3145728 303562752 6.3827508985856e+14
vector 1824  BasicTopology.peer[24].bitTorrentApp.bitTorrentClient.contentManager_51  TotalBytesDownloaded:vector  ETV
attr source ContentManager_TotalBytesDownloaded
attr title "Total of Bytes Downloaded, vector"
attr unit B
1824	484409 7871 3026148 202692276 36005.137285769243 36174.568819152729 192 16384 3145728 303562752 6.3827508985856e+14
vector 1871  BasicTopology.peer[30].bitTorrentApp.bitTorrentClient.contentManager_51  PiecesDownloaded:vector  ETV
attr source ContentManager_PieceDownloaded
attr title "Pieces Downloaded, vector"
1871	571050 853 3087479 157492349 36005.21844828143 36124.892974047401 24 0 23 276 4324
vector 1873  BasicTopology.peer[30].bitTorrentApp.bitTorrentClient.contentManager_51  TotalBytesUploaded:vector  ETV
attr source ContentManager_TotalBytesUploaded
attr title "Total of Bytes Uploaded, vector"
attr unit B
1873	580528 14024 3118911 215080972 36005.252626114357 36190.095373404525 344 16384 5636096 972226560 3.6583511372595e+15
vector 1712  BasicTopology.peer[10].bitTorrentApp.bitTorrentClient.contentManager_51  TotalBytesDownloaded:vector  ETV
attr source ContentManager_TotalBytesDownloaded
attr title "Total of Bytes Downloaded, vector"
attr unit B
1712	247027 7744 3266405 211428047 36005.454161955036 36185.73420930267 192 16384 3145728 303562752 6.3827508985856e+14
vector 1711  BasicTopology.peer[10].bitTorrentApp.bitTorrentClient.contentManager_51  PiecesDownloaded:vector  ETV
attr source ContentManager_PieceDownloaded
attr title "Pieces Downloaded, vector"
1711	246179 848 3457613 211428047 36005.732260341581 36185.73420930267 24 0 23 276 4324
vector 1713  BasicTopology.peer[10].bitTorrentApp.bitTorrentClient.contentManager_51  TotalBytesUploaded:vector  ETV
attr source ContentManager_TotalBytesUploaded
attr title "Total of Bytes Uploaded, vector"
attr unit B
1713	254771 16825 3479020 211509738 36005.857446227161 36185.816141069201 413 16384 6766592 1400684544 6.3262234918257e+15
vector 1648  BasicTopology.peer[2].bitTorrentApp.bitTorrentClient.contentManager_51  TotalBytesDownloaded:vector  ETV
attr source ContentManager_TotalBytesDownloaded
attr title "Total of Bytes Downloaded, vector"
attr unit B
1648	99436 7780 3503482 133518508 36005.936726223152 36104.340698519088 192 16384 3145728 303562752 6.3827508985856e+14
vector 1880  BasicTopology.peer[31].bitTorrentApp.bitTorrentClient.contentManager_51  TotalBytesDownloaded:vector  ETV
attr source ContentManager_TotalBytesDownloaded
attr title "Total of Bytes Downloaded, vector"
attr unit B
1880	595419 8111 3629664 230475104 36006.121199357025 36221.210134231847 198 16384 3244032 322781184 6.9983780890214e+14
vector 1879  BasicTopology.peer[31].bitTorrentApp.bitTorrentClient.contentManager_51  PiecesDownloaded:vector  ETV
attr source ContentManager_PieceDownloaded
attr title "Pieces Downloaded, vector"
1879	594552 867 3756045 230475104 36006.447063662156 36221.210134231847 24 0 23 276 4324
vector 1881  BasicTopology.peer[31].bitTorrentApp.bitTorrentClient.contentManager_51  TotalBytesUploaded:vector  ETV
attr source ContentManager_TotalBytesUploaded
attr title "Total of Bytes Uploaded, vector"
attr unit B
1881	603530 10748 3791188 225768824 36006.503271567117 36207.037753191653 263 16384 4308992 568786944 1.6370385960305e+15
vector 1912  BasicTopology.peer[35].bitTorrentApp.bitTorrentClient.contentManager_51  TotalBytesDownloaded:vector  ETV
attr source ContentManager_TotalBytesDownloaded
attr title "Total of Bytes Downloaded, vector"
attr unit B
1912	661792 8033 3840063 226619430 36006.600190671501 36208.952413439485 196 16384 3211264 316309504 6.7889635367322e+14
vector 1832  BasicTopology.peer[25].bitTorrentApp.bitTorrentClient.contentManager_51  TotalBytesDownloaded:vector  ETV
attr source ContentManager_TotalBytesDownloaded
attr title "Total of Bytes Downloaded, vector"
attr unit B
1832	499074 8385 4193033 221582191 36007.081701661539 36199.076775340973 204 16384 3342336 342589440 7.6523700748288e+14
vector 1647  BasicTopology.peer[2].bitTorrentApp.bitTorrentClient.contentManager_51  PiecesDownloaded:vector  ETV
attr source ContentManager_PieceDownloaded
attr title "Pieces Downloaded, vector"
1647	98580 856 4344247 133518508 36007.237170736196 36104.340698519088 24 0 23 276 4324
vector 1728  BasicTopology.peer[12].bitTorrentApp.bitTorrentClient.contentManager_51  TotalBytesDownloaded:vector  ETV
attr source ContentManager_TotalBytesDownloaded
attr title "Total of Bytes Downloaded, vector"
attr unit B
1728	291840 8650 4386224 226671007 36007.282396548046 36209.195537663665 210 16384 3440640 362987520 8.3458864971776e+14
vector 1649  BasicTopology.peer[2].bitTorrentApp.bitTorrentClient.contentManager_51  TotalBytesUploaded:vector  ETV
attr source ContentManager_TotalBytesUploaded
attr title "Total of Bytes Uploaded, vector"
attr unit B
1649	107216 11793 4389276 169060182 36007.285909578752 36136.309964959922 290 16384 4751360 691322880 2.1935914640998e+15
vector 1760  BasicTopology.peer[16].bitTorrentApp.bitTorrentClient.contentManager_51  TotalBytesDownloaded:vector  ETV
attr source ContentManager_TotalBytesDownloaded
attr title "Total of Bytes Downloaded, vector"
attr unit B
1760	354143 7880 4546711 223069259 36007.49083019954 36202.128129765738 192 16384 3145728 303562752 6.3827508985856e+14
vector 1831  BasicTopology.peer[25].bitTorrentApp.bitTorrentClient.contentManager_51  PiecesDownloaded:vector  ETV
attr source ContentManager_PieceDownloaded
attr title "Pieces Downloaded, vector"
1831	498208 866 4645551 221582191 36007.596325361528 36199.076775340973 24 0 23 276 4324
vector 1833  BasicTopology.peer[25].bitTorrentApp.bitTorrentClient.contentManager_51  TotalBytesUploaded:vector  ETV
attr source ContentManager_TotalBytesUploaded
attr title "Total of Bytes Uploaded, vector"
attr unit B
1833	507459 11336 4715608 209011609 36007.642790757213 36182.552219788862 278 16384 4554752 635387904 1.9328262828196e+15
vector 1823  BasicTopology.peer[24].bitTorrentApp.bitTorrentClient.contentManager_51  PiecesDownloaded:vector  ETV
attr source ContentManager_PieceDownloaded
attr title "Pieces Downloaded, vector"
1823	483542 867 4863114 202692276 36007.769340336291 36174.568819152729 24 0 23 276 4324
vector 1825  BasicTopology.peer[24].bitTorrentApp.bitTorrentClient.contentManager_51  TotalBytesUploaded:vector  ETV
attr source ContentManager_TotalBytesUploaded
attr title "Total of Bytes Uploaded, vector"
attr unit B
1825	492280 5928 4899964 188796046 36007.879177080604 36157.730168987133 146 16384 2392064 175816704 2.8133673245082e+14
vector 1736  BasicTopology.peer[13].bitTorrentApp.bitTorrentClient.contentManager_51  TotalBytesDownloaded:vector  ETV
attr source ContentManager_TotalBytesDownloaded
attr title "Total of Bytes Downloaded, vector"
attr unit B
1736	306635 7882 4919838 212681144 36007.92260392225 36187.258645297058 192 16384 3145728 303562752 6.3827508985856e+14
vector 1656  BasicTopology.peer[3].bitTorrentApp.bitTorrentClient.contentManager_51  TotalBytesDownloaded:vector  ETV
attr source ContentManager_TotalBytesDownloaded
attr title "Total of Bytes Downloaded, vector"
attr unit B
1656	119864 8199 4979591 182964668 36008.018840999971 36150.777952453407 202 16384 3309568 335921152 7.4300384083968e+14
vector 1672  BasicTopology.peer[5].bitTorrentApp.bitTorrentClient.contentManager_51  TotalBytesDownloaded:vector  ETV
attr source ContentManager_TotalBytesDownloaded
attr title "Total of Bytes Downloaded, vector"
attr unit B
1672	159629 8103 5590181 190708443 36008.802841720884 36159.809672844954 198 16384 3244032 322781184 6.9983780890214e+14
vector 1664  BasicTopology.peer[4].bitTorrentApp.bitTorrentClient.contentManager_51  TotalBytesDownloaded:vector  ETV
attr source ContentManager_TotalBytesDownloaded
attr title "Total of Bytes Downloaded, vector"
attr unit B
1664	141284 8558 5788180 204967095 36009.090961015427 36177.473164539874 208 16384 3407872 356122624 8.1102511695462e+14
vector 1911  BasicTopology.peer[35].bitTorrentApp.bitTorrentClient.contentManager_51  PiecesDownloaded:vector  ETV
attr source ContentManager_PieceDownloaded
attr title "Pieces Downloaded, vector"
1911	660928 864 5871771 226619430 36009.180469106926 36208.952413439485 24 0 23 276 4324
vector 1913  BasicTopology.peer[35].bitTorrentApp.bitTorrentClient.contentManager_51  TotalBytesUploaded:vector  ETV
attr source ContentManager_TotalBytesUploaded
attr title "Total of Bytes Uploaded, vector"
attr unit B
1913	669825 12562 5892544 139736550 36009.196739024106 36109.282262321206 309 16384 5062656 784711680 2.6527691020698e+15
vector 1808  BasicTopology.peer[22].bitTorrentApp.bitTorrentClient.contentManager_51  TotalBytesDownloaded:vector  ETV
attr source ContentManager_TotalBytesDownloaded
attr title "Total of Bytes Downloaded, vector"
attr unit B
1808	449761 7840 5916837 230823913 36009.218998547762 36224.790106434433 192 16384 3145728 303562752 6.3827508985856e+14
vector 1776  BasicTopology.peer[18].bitTorrentApp.bitTorrentClient.contentManager_51  TotalBytesDownloaded:vector  ETV
attr source ContentManager_TotalBytesDownloaded
attr title "Total of Bytes Downloaded, vector"
attr unit B
1776	379025 8619 5959620 224690793 36009.255456575598 36204.969108460146 210 16384 3440640 362987520 8.3458864971776e+14
vector 1696  BasicTopology.peer[8].bitTorrentApp.bitTorrentClient.contentManager_51  TotalBytesDownloaded:vector  ETV
attr source ContentManager_TotalBytesDownloaded
attr title "Total of Bytes Downloaded, vector"
attr unit B
1696	213354 7885 6034191 226370557 36009.31811321197 36208.072186848956 192 16384 3145728 303562752 6.3827508985856e+14
vector 1695  BasicTopology.peer[8].bitTorrentApp.bitTorrentClient.contentManager_51  PiecesDownloaded:vector  ETV
attr source ContentManager_PieceDownloaded
attr title "Pieces Downloaded, vector"
1695	212487 867 6364247 226370557 36009.684173777948 36208.072186848956 24 0 23 276 4324
vector 1697  BasicTopology.peer[8].bitTorrentApp.bitTorrentClient.contentManager_51  TotalBytesUploaded:vector  ETV
attr source ContentManager_TotalBytesUploaded
attr title "Total of Bytes Uploaded, vector"
attr unit B
1697	221239 10504 6405680 201103789 36009.741635364902 36172.732514331042 258 16384 4227072 547405824 1.545605453185e+15
vector 1904  BasicTopology.peer[34].bitTorrentApp.bitTorrentClient.contentManager_51  TotalBytesDownloaded:vector  ETV
attr source ContentManager_TotalBytesDownloaded
attr title "Total of Bytes Downloaded, vector"
attr unit B
1904	644920 8635 6554989 223010653 36009.933544102212 36202.038416943523 210 16384 3440640 362987520 8.3458864971776e+14
vector 1680  BasicTopology.peer[6].bitTorrentApp.bitTorrentClient.contentManager_51  TotalBytesDownloaded:vector  ETV
attr source ContentManager_TotalBytesDownloaded
attr title "Total of Bytes Downloaded, vector"
attr unit B
1680	176391 8544 6576236 219967098 36009.960100686437 36196.51219041603 208 16384 3407872 356122624 8.1102511695462e+14
vector 1984  BasicTopology.peer[44].bitTorrentApp.bitTorrentClient.contentManager_51  TotalBytesDownloaded:vector  ETV
attr source ContentManager_TotalBytesDownloaded
attr title "Total of Bytes Downloaded, vector"
attr unit B
1984	819218 8241 7152007 227723163 36010.378203277766 36210.937432480564 201 16384 3293184 332611584 7.3205060049306e+14
vector 1752  BasicTopology.peer[15].bitTorrentApp.bitTorrentClient.contentManager_51  TotalBytesDownloaded:vector  ETV
attr source ContentManager_TotalBytesDownloaded
attr title "Total of Bytes Downloaded, vector"
attr unit B
1752	341964 8635 7333967 213753088 36010.566448105904 36188.54773538552 210 16384 3440640 362987520 8.3458864971776e+14
vector 1727  BasicTopology.peer[12].bitTorrentApp.bitTorrentClient.contentManager_51  PiecesDownloaded:vector  ETV
attr source ContentManager_PieceDownloaded
attr title "Pieces Downloaded, vector"
1727	290973 867 7551592 226671007 36010.809679659951 36209.195537663665 24 0 23 276 4324
vector 1729  BasicTopology.peer[12].bitTorrentApp.bitTorrentClient.contentManager_51  TotalBytesUploaded:vector  ETV
attr source ContentManager_TotalBytesUploaded
attr title "Total of Bytes Uploaded, vector"
attr unit B