file 916339 1593887687                                          
version 2
run Test-10-20200526-20:43:08-4284
attr configname Test
attr datetime 20200526-20:43:08
attr experiment "\"Simulation Test\""
attr inifile BasicConfig.ini
attr iterationvars ""
attr iterationvars2 $repetition=10
attr measurement "\"Peers: $peers, Rate: $rate\""
attr network BasicTopology
attr processid 4284
attr repetition 10
attr replication #10
attr resultdir results
attr runnumber 10
attr seedset 10
vector 3  BasicTopology.peer[1].bitTorrentApp.bitTorrentClient  DownloadComplete_Test:vector  ETV
attr source BitTorrentClient_DownloadComplete_Test
attr title "Descargas completas (prueba), vector"
3	42445 65 153 208239201 36001 36180.154409938683 2 36001 36180.154409939 72181.154409939 2605075574.127
vector 5  BasicTopology.peer[2].bitTorrentApp.bitTorrentClient  DownloadComplete_Test:vector  ETV
attr source BitTorrentClient_DownloadComplete_Test
attr title "Descargas completas (prueba), vector"
5	42510 65 154 181879731 36001 36152.088535957473 2 36001 36152.088535957 72153.088535957 2603045506.5117
vector 7  BasicTopology.peer[3].bitTorrentApp.bitTorrentClient  DownloadComplete_Test:vector  ETV
attr source BitTorrentClient_DownloadComplete_Test
attr title "Descargas completas (prueba), vector"
7	42575 65 155 241055330 36001 36222.380563083655 2 36001 36222.380563084 72223.380563084 2608132854.6569
vector 9  BasicTopology.peer[4].bitTorrentApp.bitTorrentClient  DownloadComplete_Test:vector  ETV
attr source BitTorrentClient_DownloadComplete_Test
attr title "Descargas completas (prueba), vector"
9	42640 65 156 241691940 36001 36223.948486144498 2 36001 36223.948486144 72224.948486144 2608246444.9268
vector 11  BasicTopology.peer[5].bitTorrentApp.bitTorrentClient  DownloadComplete_Test:vector  ETV
attr source BitTorrentClient_DownloadComplete_Test
attr title "Descargas completas (prueba), vector"
11	42705 66 157 199983762 36001 36170.541919860294 2 36001 36170.54191986 72171.54191986 2604380103.7763
vector 13  BasicTopology.peer[6].bitTorrentApp.bitTorrentClient  DownloadComplete_Test:vector  ETV
attr source BitTorrentClient_DownloadComplete_Test
attr title "Descargas completas (prueba), vector"
13	42771 67 158 237004739 36001 36216.284642989098 2 36001 36216.284642989 72217.284642989 2607691274.342
vector 15  BasicTopology.peer[7].bitTorrentApp.bitTorrentClient  DownloadComplete_Test:vector  ETV
attr source BitTorrentClient_DownloadComplete_Test
attr title "Descargas completas (prueba), vector"
15	42838 67 159 219426210 36001 36193.260234358327 2 36001 36193.260234358 72194.260234358 2606024087.392
vector 17  BasicTopology.peer[8].bitTorrentApp.bitTorrentClient  DownloadComplete_Test:vector  ETV
attr source BitTorrentClient_DownloadComplete_Test
attr title "Descargas completas (prueba), vector"
17	42905 66 160 235347253 36001 36214.022585779649 2 36001 36214.02258578 72215.02258578 2607527432.8434
vector 19  BasicTopology.peer[9].bitTorrentApp.bitTorrentClient  DownloadComplete_Test:vector  ETV
attr source BitTorrentClient_DownloadComplete_Test
attr title "Descargas completas (prueba), vector"
19	42971 67 161 243980216 36001 36227.951740095479 2 36001 36227.951740095 72228.951740095 2608536488.2827
vector 21  BasicTopology.peer[10].bitTorrentApp.bitTorrentClient  DownloadComplete_Test:vector  ETV
attr source BitTorrentClient_DownloadComplete_Test
attr title "Descargas completas (prueba), vector"
21	43038 67 162 238866279 36001 36219.322170284934 2 36001 36219.322170285 72220.322170285 2607911299.4749
vector 23  BasicTopology.peer[11].bitTorrentApp.bitTorrentClient  DownloadComplete_Test:vector  ETV
attr source BitTorrentClient_DownloadComplete_Test
attr title "Descargas completas (prueba), vector"
23	43105 67 163 192022813 36001 36162.195190391298 2 36001 36162.195190391 72163.195190391 2603776361.9879
vector 25  BasicTopology.peer[12].bitTorrentApp.bitTorrentClient  DownloadComplete_Test:vector  ETV
attr source BitTorrentClient_DownloadComplete_Test
attr title "Descargas completas (prueba), vector"
25	43172 67 164 245134717 36001 36241.127187026211 2 36001 36241.127187026 72242.127187026 2609491300.7862
vector 27  BasicTopology.peer[13].bitTorrentApp.bitTorrentClient  DownloadComplete_Test:vector  ETV
attr source BitTorrentClient_DownloadComplete_Test
attr title "Descargas completas (prueba), vector"
27	43239 66 165 228548680 36001 36204.61930067192 2 36001 36204.619300672 72205.619300672 2606846459.7066
vector 29  BasicTopology.peer[14].bitTorrentApp.bitTorrentClient  DownloadComplete_Test:vector  ETV
attr source BitTorrentClient_DownloadComplete_Test
attr title "Descargas completas (prueba), vector"
29	43305 67 166 228115967 36001 36204.041288051077 2 36001 36204.041288051 72205.041288051 2606804606.5869
vector 31  BasicTopology.peer[15].bitTorrentApp.bitTorrentClient  DownloadComplete_Test:vector  ETV
attr source BitTorrentClient_DownloadComplete_Test
attr title "Descargas completas (prueba), vector"
31	43372 67 167 248737782 36001 36285.068587202044 2 36001 36285.068587202 72286.068587202 2612678203.378
vector 33  BasicTopology.peer[16].bitTorrentApp.bitTorrentClient  DownloadComplete_Test:vector  ETV
attr source BitTorrentClient_DownloadComplete_Test
attr title "Descargas completas (prueba), vector"
33	43439 67 168 244395593 36001 36229.026113343175 2 36001 36229.026113343 72230.026113343 2608614334.1213
vector 35  BasicTopology.peer[17].bitTorrentApp.bitTorrentClient  DownloadComplete_Test:vector  ETV
attr source BitTorrentClient_DownloadComplete_Test
attr title "Descargas completas (prueba), vector"
35	43506 67 169 181846313 36001 36152.047106517143 2 36001 36152.047106517 72153.047106517 2603042510.9918
vector 37  BasicTopology.peer[18].bitTorrentApp.bitTorrentClient  DownloadComplete_Test:vector  ETV
attr source BitTorrentClient_DownloadComplete_Test
attr title "Descargas completas (prueba), vector"
37	43573 65 170 206911119 36001 36178.6065520467 2 36001 36178.606552047 72179.606552047 2604963573.0478
vector 39  BasicTopology.peer[19].bitTorrentApp.bitTorrentClient  DownloadComplete_Test:vector  ETV
attr source BitTorrentClient_DownloadComplete_Test
attr title "Descargas completas (prueba), vector"
39	43638 67 171 239273588 36001 36219.787800941791 2 36001 36219.787800942 72220.787800942 2607945029.3453
vector 41  BasicTopology.peer[20].bitTorrentApp.bitTorrentClient  DownloadComplete_Test:vector  ETV
attr source BitTorrentClient_DownloadComplete_Test
attr title "Descargas completas (prueba), vector"
41	43705 65 172 214945456 36001 36187.63096895023 2 36001 36187.63096895 72188.63096895 2605616636.1449
vector 43  BasicTopology.peer[21].bitTorrentApp.bitTorrentClient  DownloadComplete_Test:vector  ETV
attr source BitTorrentClient_DownloadComplete_Test
attr title "Descargas completas (prueba), vector"
43	43770 67 173 232918198 36001 36210.458426302651 2 36001 36210.458426303 72211.458426303 2607269300.443
vector 45  BasicTopology.peer[22].bitTorrentApp.bitTorrentClient  DownloadComplete_Test:vector  ETV
attr source BitTorrentClient_DownloadComplete_Test
attr title "Descargas completas (prueba), vector"
45	43837 67 174 211489681 36001 36183.494348679311 2 36001 36183.494348679 72184.494348679 2605317264.2809
vector 47  BasicTopology.peer[23].bitTorrentApp.bitTorrentClient  DownloadComplete_Test:vector  ETV
attr source BitTorrentClient_DownloadComplete_Test
attr title "Descargas completas (prueba), vector"
47	43904 67 175 246689136 36001 36245.579545225867 2 36001 36245.579545226 72246.579545226 2609814037.5693
vector 49  BasicTopology.peer[24].bitTorrentApp.bitTorrentClient  DownloadComplete_Test:vector  ETV
attr source BitTorrentClient_DownloadComplete_Test
attr title "Descargas completas (prueba), vector"
49	43971 67 176 228221874 36001 36204.239241453079 2 36001 36204.239241453 72205.239241453 2606818940.0524
vector 51  BasicTopology.peer[25].bitTorrentApp.bitTorrentClient  DownloadComplete_Test:vector  ETV
attr source BitTorrentClient_DownloadComplete_Test
attr title "Descargas completas (prueba), vector"
51	44038 67 177 219023068 36001 36192.744635460766 2 36001 36192.744635461 72193.744635461 2605986765.2477
vector 53  BasicTopology.peer[26].bitTorrentApp.bitTorrentClient  DownloadComplete_Test:vector  ETV
attr source BitTorrentClient_DownloadComplete_Test
attr title "Descargas completas (prueba), vector"
53	44105 67 178 243040844 36001 36225.785125889362 2 36001 36225.785125889 72226.785125889 2608379508.9871
vector 55  BasicTopology.peer[27].bitTorrentApp.bitTorrentClient  DownloadComplete_Test:vector  ETV
attr source BitTorrentClient_DownloadComplete_Test
attr title "Descargas completas (prueba), vector"
55	44172 67 179 232976518 36001 36210.564652182112 2 36001 36210.564652182 72211.564652182 2607276993.4299
vector 57  BasicTopology.peer[28].bitTorrentApp.bitTorrentClient  DownloadComplete_Test:vector  ETV
attr source BitTorrentClient_DownloadComplete_Test
attr title "Descargas completas (prueba), vector"
57	44239 67 180 241538385 36001 36223.668588965758 2 36001 36223.668588966 72224.668588966 2608226167.0432
vector 59  BasicTopology.peer[29].bitTorrentApp.bitTorrentClient  DownloadComplete_Test:vector  ETV
attr source BitTorrentClient_DownloadComplete_Test
attr title "Descargas completas (prueba), vector"
59	44306 66 181 229868620 36001 36206.171193070302 2 36001 36206.17119307 72207.17119307 2606958833.4619
vector 61  BasicTopology.peer[30].bitTorrentApp.bitTorrentClient  DownloadComplete_Test:vector  ETV
attr source BitTorrentClient_DownloadComplete_Test
attr title "Descargas completas (prueba), vector"
61	44372 67 182 229468107 36001 36205.713520344273 2 36001 36205.713520344 72206.713520344 2606925692.5172
vector 63  BasicTopology.peer[31].bitTorrentApp.bitTorrentClient  DownloadComplete_Test:vector  ETV
attr source BitTorrentClient_DownloadComplete_Test
attr title "Descargas completas (prueba), vector"
63	44439 67 183 227844582 36001 36203.675273541866 2 36001 36203.675273542 72204.675273542 2606778104.3121
vector 65  BasicTopology.peer[32].bitTorrentApp.bitTorrentClient  DownloadComplete_Test:vector  ETV
attr source BitTorrentClient_DownloadComplete_Test
attr title "Descargas completas (prueba), vector"
65	44506 67 184 239208743 36001 36219.714596506645 2 36001 36219.714596507 72220.714596507 2607939726.4524
vector 67  BasicTopology.peer[33].bitTorrentApp.bitTorrentClient  DownloadComplete_Test:vector  ETV
attr source BitTorrentClient_DownloadComplete_Test
attr title "Descargas completas (prueba), vector"
67	44573 67 185 227745151 36001 36203.549475508471 2 36001 36203.549475508 72204.549475508 2606768995.6256
vector 69  BasicTopology.peer[34].bitTorrentApp.bitTorrentClient  DownloadComplete_Test:vector  ETV
attr source BitTorrentClient_DownloadComplete_Test
attr title "Descargas completas (prueba), vector"
69	44640 67 186 241019357 36001 36222.336182993641 2 36001 36222.336182994 72223.336182994 2608129639.5538
vector 71  BasicTopology.peer[35].bitTorrentApp.bitTorrentClient  DownloadComplete_Test:vector  ETV
attr source BitTorrentClient_DownloadComplete_Test
attr title "Descargas completas (prueba), vector"
71	44707 67 187 247544253 36001 36248.848703391829 2 36001 36248.848703392 72249.848703392 2610051033.3214
vector 73  BasicTopology.peer[36].bitTorrentApp.bitTorrentClient  DownloadComplete_Test:vector  ETV
attr source BitTorrentClient_DownloadComplete_Test
attr title "Descargas completas (prueba), vector"
73	44774 66 188 244628418 36001 36233.207252290497 2 36001 36233.20725229 72234.20725229 2608917308.7874
vector 75  BasicTopology.peer[37].bitTorrentApp.bitTorrentClient  DownloadComplete_Test:vector  ETV
attr source BitTorrentClient_DownloadComplete_Test
attr title "Descargas completas (prueba), vector"
75	44840 67 189 229971824 36001 36206.276662112696 2 36001 36206.276662113 72207.276662113 2606966470.7335
vector 77  BasicTopology.peer[38].bitTorrentApp.bitTorrentClient  DownloadComplete_Test:vector  ETV
attr source BitTorrentClient_DownloadComplete_Test
attr title "Descargas completas (prueba), vector"
77	44907 67 190 232280068 36001 36209.595762555874 2 36001 36209.595762556 72210.595762556 2607206826.2877
vector 79  BasicTopology.peer[39].bitTorrentApp.bitTorrentClient  DownloadComplete_Test:vector  ETV
attr source BitTorrentClient_DownloadComplete_Test
attr title "Descargas completas (prueba), vector"
79	44974 67 191 237965123 36001 36217.862813418646 2 36001 36217.862813419 72218.862813419 2607805587.7716
vector 81  BasicTopology.peer[40].bitTorrentApp.bitTorrentClient  DownloadComplete_Test:vector  ETV
attr source BitTorrentClient_DownloadComplete_Test
attr title "Descargas completas (prueba), vector"
81	45041 66 192 246983398 36001 36246.27549250271 2 36001 36246.275492503 72247.275492503 2609864488.0784
vector 83  BasicTopology.peer[41].bitTorrentApp.bitTorrentClient  DownloadComplete_Test:vector  ETV
attr source BitTorrentClient_DownloadComplete_Test
attr title "Descargas completas (prueba), vector"
83	45107 67 193 141565022 36001 36114.950095637423 2 36001 36114.950095637 72115.950095637 2600361621.4104
vector 85  BasicTopology.peer[42].bitTorrentApp.bitTorrentClient  DownloadComplete_Test:vector  ETV
attr source BitTorrentClient_DownloadComplete_Test
attr title "Descargas completas (prueba), vector"
85	45174 67 194 206528369 36001 36178.207067474328 2 36001 36178.207067474 72179.207067474 2604934667.617
vector 87  BasicTopology.peer[43].bitTorrentApp.bitTorrentClient  DownloadComplete_Test:vector  ETV
attr source BitTorrentClient_DownloadComplete_Test
attr title "Descargas completas (prueba), vector"
87	45241 67 195 225869997 36001 36201.183752766537 2 36001 36201.183752767 72202.183752767 2606597706.1016
vector 89  BasicTopology.peer[44].bitTorrentApp.bitTorrentClient  DownloadComplete_Test:vector  ETV
attr source BitTorrentClient_DownloadComplete_Test
attr title "Descargas completas (prueba), vector"
89	45308 65 196 248682061 36001 36284.93086471969 2 36001 36284.93086472 72285.93086472 2612668208.8575
vector 91  BasicTopology.peer[45].bitTorrentApp.bitTorrentClient  DownloadComplete_Test:vector  ETV
attr source BitTorrentClient_DownloadComplete_Test
attr title "Descargas completas (prueba), vector"
91	45373 67 197 239904754 36001 36220.756022907064 2 36001 36220.756022907 72221.756022907 2608015167.871
vector 93  BasicTopology.peer[46].bitTorrentApp.bitTorrentClient  DownloadComplete_Test:vector  ETV
attr source BitTorrentClient_DownloadComplete_Test
attr title "Descargas completas (prueba), vector"
93	45440 67 198 247074787 36001 36246.441317712762 2 36001 36246.441317713 72247.441317713 2609876509.1984
vector 95  BasicTopology.peer[47].bitTorrentApp.bitTorrentClient  DownloadComplete_Test:vector  ETV
attr source BitTorrentClient_DownloadComplete_Test
attr title "Descargas completas (prueba), vector"
95	45507 67 199 241488860 36001 36223.591561185729 2 36001 36223.591561186 72224.591561186 2608220586.5916
vector 97  BasicTopology.peer[48].bitTorrentApp.bitTorrentClient  DownloadComplete_Test:vector  ETV
attr source BitTorrentClient_DownloadComplete_Test
attr title "Descargas completas (prueba), vector"
97	45574 66 200 246744064 36001 36245.730161080421 2 36001 36245.73016108 72246.73016108 2609824955.9098
vector 99  BasicTopology.peer[49].bitTorrentApp.bitTorrentClient  DownloadComplete_Test:vector  ETV
attr source BitTorrentClient_DownloadComplete_Test
attr title "Descargas completas (prueba), vector"
99	45640 66 201 226194295 36001 36201.52521501862 2 36001 36201.525215019 72202.525215019 2606622428.8937
vector 1633  BasicTopology.peer[0].bitTorrentApp.bitTorrentClient.contentManager_51  TotalBytesUploaded:vector  ETV
attr source ContentManager_TotalBytesUploaded
attr title "Total of Bytes Uploaded, vector"
attr unit B
1633	45706 16964 1271201 218687245 36002.589016060569 36192.34025379353 417 16384 6832128 1427914752 6.5115958909338e+15
vector 1648  BasicTopology.peer[2].bitTorrentApp.bitTorrentClient.contentManager_51  TotalBytesDownloaded:vector  ETV
attr source ContentManager_TotalBytesDownloaded
attr title "Total of Bytes Downloaded, vector"
attr unit B
1648	82379 8138 1353481 181879731 36002.654395416605 36152.088535957473 200 16384 3276800 329318400 7.212055396352e+14
vector 1647  BasicTopology.peer[2].bitTorrentApp.bitTorrentClient.contentManager_51  PiecesDownloaded:vector  ETV
attr source ContentManager_PieceDownloaded
attr title "Pieces Downloaded, vector"
1647	81523 856 1683641 181879731 36003.88324557776 36152.088535957473 24 0 23 276 4324
vector 1649  BasicTopology.peer[2].bitTorrentApp.bitTorrentClient.contentManager_51  TotalBytesUploaded:vector  ETV
attr source ContentManager_TotalBytesUploaded
attr title "Total of Bytes Uploaded, vector"
attr unit B
1649	90517 17593 1699470 225656771 36003.912099916399 36200.893833493152 430 16384 7045120 1518223360 7.1390020291789e+15
vector 1960  BasicTopology.peer[41].bitTorrentApp.bitTorrentClient.contentManager_51  TotalBytesDownloaded:vector  ETV
attr source ContentManager_TotalBytesDownloaded
attr title "Total of Bytes Downloaded, vector"
attr unit B
1960	748245 8185 2690824 162580005 36004.779104137348 36133.189162611602 202 16384 3309568 335921152 7.4300384083968e+14
vector 1920  BasicTopology.peer[36].bitTorrentApp.bitTorrentClient.contentManager_51  TotalBytesDownloaded:vector  ETV
attr source ContentManager_TotalBytesDownloaded
attr title "Total of Bytes Downloaded, vector"
attr unit B
1920	679133 8238 3019431 244628418 36005.54563431161 36233.207252290497 201 16384 3293184 332611584 7.3205060049306e+14
vector 1672  BasicTopology.peer[5].bitTorrentApp.bitTorrentClient.contentManager_51  TotalBytesDownloaded:vector  ETV
attr source ContentManager_TotalBytesDownloaded
attr title "Total of Bytes Downloaded, vector"
attr unit B
1672	141579 8200 3157493 199983762 36005.721929164942 36170.541919860294 200 16384 3276800 329318400 7.212055396352e+14
vector 1896  BasicTopology.peer[33].bitTorrentApp.bitTorrentClient.contentManager_51  TotalBytesDownloaded:vector  ETV
attr source ContentManager_TotalBytesDownloaded
attr title "Total of Bytes Downloaded, vector"
attr unit B
1896	640384 8552 3250207 227745151 36005.886890061087 36203.549475508471 208 16384 3407872 356122624 8.1102511695462e+14
vector 1992  BasicTopology.peer[45].bitTorrentApp.bitTorrentClient.contentManager_51  TotalBytesDownloaded:vector  ETV
attr source ContentManager_TotalBytesDownloaded
attr title "Total of Bytes Downloaded, vector"
attr unit B
1992	836969 8870 3502026 239904754 36006.293929803643 36220.756022907064 215 16384 3522560 380436480 8.9548457508864e+14
vector 1959  BasicTopology.peer[41].bitTorrentApp.bitTorrentClient.contentManager_51  PiecesDownloaded:vector  ETV
attr source ContentManager_PieceDownloaded
attr title "Pieces Downloaded, vector"
1959	747391 854 3593883 141565022 36006.417103456155 36114.950095637423 24 0 23 276 4324
vector 1961  BasicTopology.peer[41].bitTorrentApp.bitTorrentClient.contentManager_51  TotalBytesUploaded:vector  ETV
attr source ContentManager_TotalBytesUploaded
attr title "Total of Bytes Uploaded, vector"
attr unit B
1961	756430 18606 3642827 222174456 36006.48593260751 36196.730934702192 455 16384 7454720 1699676160 8.4563557403853e+15
vector 1888  BasicTopology.peer[32].bitTorrentApp.bitTorrentClient.contentManager_51  TotalBytesDownloaded:vector  ETV
attr source ContentManager_TotalBytesDownloaded
attr title "Total of Bytes Downloaded, vector"
attr unit B
1888	619934 8205 3680388 239208743 36006.651700128792 36219.714596506645 200 16384 3276800 329318400 7.212055396352e+14
vector 1887  BasicTopology.peer[32].bitTorrentApp.bitTorrentClient.contentManager_51  PiecesDownloaded:vector  ETV
attr source ContentManager_PieceDownloaded
attr title "Pieces Downloaded, vector"
1887	619070 864 3816931 239208743 36006.98243340073 36219.714596506645 24 0 23 276 4324
vector 1889  BasicTopology.peer[32].bitTorrentApp.bitTorrentClient.contentManager_51  TotalBytesUploaded:vector  ETV
attr source ContentManager_TotalBytesUploaded
attr title "Total of Bytes Uploaded, vector"
attr unit B
1889	628139 11380 3939671 170794079 36007.08218186972 36141.002084392778 279 16384 4571136 639959040 1.9537215671501e+15
vector 1808  BasicTopology.peer[22].bitTorrentApp.bitTorrentClient.contentManager_51  TotalBytesDownloaded:vector  ETV
attr source ContentManager_TotalBytesDownloaded
attr title "Total of Bytes Downloaded, vector"
attr unit B
1808	453179 8794 4074992 211489681 36007.223177375487 36183.494348679311 214 16384 3506176 376913920 8.8307614613504e+14
vector 1728  BasicTopology.peer[12].bitTorrentApp.bitTorrentClient.contentManager_51  TotalBytesDownloaded:vector  ETV
attr source ContentManager_TotalBytesDownloaded
attr title "Total of Bytes Downloaded, vector"
attr unit B
1728	294963 8452 4082392 245134717 36007.241818986187 36241.127187026211 206 16384 3375104 349323264 7.879093345321e+14
vector 1952  BasicTopology.peer[40].bitTorrentApp.bitTorrentClient.contentManager_51  TotalBytesDownloaded:vector  ETV
attr source ContentManager_TotalBytesDownloaded
attr title "Total of Bytes Downloaded, vector"
attr unit B
1952	731992 7846 4270024 246983398 36007.634525135834 36246.27549250271 192 16384 3145728 303562752 6.3827508985856e+14
vector 1800  BasicTopology.peer[21].bitTorrentApp.bitTorrentClient.contentManager_51  TotalBytesDownloaded:vector  ETV
attr source ContentManager_TotalBytesDownloaded
attr title "Total of Bytes Downloaded, vector"
attr unit B
1800	435512 7935 4412078 232918198 36008.090298201115 36210.458426302651 194 16384 3178496 309903360 6.5837687898112e+14
vector 1895  BasicTopology.peer[33].bitTorrentApp.bitTorrentClient.contentManager_51  PiecesDownloaded:vector  ETV
attr source ContentManager_PieceDownloaded
attr title "Pieces Downloaded, vector"
1895	639519 865 4589373 227745151 36008.376719666444 36203.549475508471 24 0 23 276 4324
vector 1897  BasicTopology.peer[33].bitTorrentApp.bitTorrentClient.contentManager_51  TotalBytesUploaded:vector  ETV
attr source ContentManager_TotalBytesUploaded
attr title "Total of Bytes Uploaded, vector"
attr unit B
1897	648936 5503 4635609 160402382 36008.457793329183 36131.345042231323 136 16384 2228224 152633344 2.2756776843674e+14
vector 1872  BasicTopology.peer[30].bitTorrentApp.bitTorrentClient.contentManager_51  TotalBytesDownloaded:vector  ETV
attr source ContentManager_TotalBytesDownloaded
attr title "Total of Bytes Downloaded, vector"
attr unit B
1872	575462 8841 5029461 243731747 36008.7491847944 36227.407041871843 216 16384 3538944 383975424 9.0800869972378e+14
vector 1991  BasicTopology.peer[45].bitTorrentApp.bitTorrentClient.contentManager_51  PiecesDownloaded:vector  ETV
attr source ContentManager_PieceDownloaded
attr title "Pieces Downloaded, vector"
1991	836102 867 5086024 239904754 36008.837714721164 36220.756022907064 24 0 23 276 4324
vector 1993  BasicTopology.peer[45].bitTorrentApp.bitTorrentClient.contentManager_51  TotalBytesUploaded:vector  ETV
attr source ContentManager_TotalBytesUploaded
attr title "Total of Bytes Uploaded, vector"
attr unit B
1993	845839 6680 5107195 248645376 36008.857049572036 36284.81993735453 164 16384 2686976 221675520 3.9830184525824e+14
vector 1704  BasicTopology.peer[9].bitTorrentApp.bitTorrentClient.contentManager_51  TotalBytesDownloaded:vector  ETV
attr source ContentManager_TotalBytesDownloaded
attr title "Total of Bytes Downloaded, vector"
attr unit B
1704	227510 7872 5435717 243980216 36009.402725206635 36227.951740095479 192 16384 3145728 303562752 6.3827508985856e+14
vector 1799  BasicTopology.peer[21].bitTorrentApp.bitTorrentClient.contentManager_51  PiecesDownloaded:vector  ETV
attr source ContentManager_PieceDownloaded
attr title "Pieces Downloaded, vector"
1799	434648 864 5452743 232918198 36009.430255218935 36210.458426302651 24 0 23 276 4324
vector 1801  BasicTopology.peer[21].bitTorrentApp.bitTorrentClient.contentManager_51  TotalBytesUploaded:vector  ETV
attr source ContentManager_TotalBytesUploaded
attr title "Total of Bytes Uploaded, vector"
attr unit B
1801	443447 8873 5517289 233101891 36009.516646690306 36210.753158138798 217 16384 3555328 387530752 9.2064905691136e+14
vector 1807  BasicTopology.peer[22].bitTorrentApp.bitTorrentClient.contentManager_51  PiecesDownloaded:vector  ETV
attr source ContentManager_PieceDownloaded
attr title "Pieces Downloaded, vector"
1807	452320 859 5609714 211489681 36009.630400487523 36183.494348679311 24 0 23 276 4324
vector 1928  BasicTopology.peer[37].bitTorrentApp.bitTorrentClient.contentManager_51  TotalBytesDownloaded:vector  ETV
attr source ContentManager_TotalBytesDownloaded
attr title "Total of Bytes Downloaded, vector"
attr unit B
1928	689953 8216 5619896 229971824 36009.641986825233 36206.276662112696 200 16384 3276800 329318400 7.212055396352e+14
vector 1809  BasicTopology.peer[22].bitTorrentApp.bitTorrentClient.contentManager_51  TotalBytesUploaded:vector  ETV
attr source ContentManager_TotalBytesUploaded
attr title "Total of Bytes Uploaded, vector"
attr unit B
1809	461973 11655 5679511 199270376 36009.739991158084 36169.783096757977 285 16384 4669440 667729920 2.082263227433e+15
vector 1640  BasicTopology.peer[1].bitTorrentApp.bitTorrentClient.contentManager_51  TotalBytesDownloaded:vector  ETV
attr source ContentManager_TotalBytesDownloaded
attr title "Total of Bytes Downloaded, vector"
attr unit B
1640	63531 8505 5719540 208239201 36009.813236132961 36180.154409938683 208 16384 3407872 356122624 8.1102511695462e+14
vector 1696  BasicTopology.peer[8].bitTorrentApp.bitTorrentClient.contentManager_51  TotalBytesDownloaded:vector  ETV
attr source ContentManager_TotalBytesDownloaded
attr title "Total of Bytes Downloaded, vector"
attr unit B
1696	208657 7881 6118250 235347253 36010.157896456581 36214.022585779649 192 16384 3145728 303562752 6.3827508985856e+14
vector 1760  BasicTopology.peer[16].bitTorrentApp.bitTorrentClient.contentManager_51  TotalBytesDownloaded:vector  ETV
attr source ContentManager_TotalBytesDownloaded
attr title "Total of Bytes Downloaded, vector"
attr unit B
1760	362401 8292 6284211 244395593 36010.401993612379 36229.026113343175 202 16384 3309568 335921152 7.4300384083968e+14
vector 1744  BasicTopology.peer[14].bitTorrentApp.bitTorrentClient.contentManager_51  TotalBytesDownloaded:vector  ETV
attr source ContentManager_TotalBytesDownloaded
attr title "Total of Bytes Downloaded, vector"
attr unit B
1744	327729 8651 6307694 232637133 36010.425472594661 36210.053126049587 210 16384 3440640 362987520 8.3458864971776e+14
vector 1832  BasicTopology.peer[25].bitTorrentApp.bitTorrentClient.contentManager_51  TotalBytesDownloaded:vector  ETV
attr source ContentManager_TotalBytesDownloaded
attr title "Total of Bytes Downloaded, vector"
attr unit B
1832	505916 8859 6400686 243358558 36010.538446095219 36226.394931485723 215 16384 3522560 380436480 8.9548457508864e+14
vector 1656  BasicTopology.peer[3].bitTorrentApp.bitTorrentClient.contentManager_51  TotalBytesDownloaded:vector  ETV
attr source ContentManager_TotalBytesDownloaded
attr title "Total of Bytes Downloaded, vector"
attr unit B
1656	108975 7887 6609040 241055330 36010.758397537086 36222.380563083655 192 16384 3145728 303562752 6.3827508985856e+14
vector 1951  BasicTopology.peer[40].bitTorrentApp.bitTorrentClient.contentManager_51  PiecesDownloaded:vector  ETV
attr source ContentManager_PieceDownloaded
attr title "Pieces Downloaded, vector"
1951	731131 861 6873821 246983398 36011.130800121258 36246.27549250271 24 0 23 276 4324
vector 1953  BasicTopology.peer[40].bitTorrentApp.bitTorrentClient.contentManager_51  TotalBytesUploaded:vector  ETV
attr source ContentManager_TotalBytesUploaded
attr title "Total of Bytes Uploaded, vector"
attr unit B
1953	739838 7553 6895399 247260067 36011.156755551051 36247.390170364537 186 16384 3047424 284934144 5.8043288623514e+14
vector 1688  BasicTopology.peer[7].bitTorrentApp.bitTorrentClient.contentManager_51  TotalBytesDownloaded:vector  ETV
attr source ContentManager_TotalBytesDownloaded
attr title "Total of Bytes Downloaded, vector"
attr unit B
1688	189643 8222 6948527 219426210 36011.23177008721 36193.260234358327 200 16384 3276800 329318400 7.212055396352e+14
vector 1712  BasicTopology.peer[10].bitTorrentApp.bitTorrentClient.contentManager_51  TotalBytesDownloaded:vector  ETV
attr source ContentManager_TotalBytesDownloaded
attr title "Total of Bytes Downloaded, vector"
attr unit B
1712	251376 7859 6993287 238866279 36011.324297713708 36219.322170284934 192 16384 3145728 303562752 6.3827508985856e+14
vector 1792  BasicTopology.peer[20].bitTorrentApp.bitTorrentClient.contentManager_51  TotalBytesDownloaded:vector  ETV
attr source ContentManager_TotalBytesDownloaded
attr title "Total of Bytes Downloaded, vector"
attr unit B
1792	422227 8383 7047906 214945456 36011.423478313031 36187.63096895023 203 16384 3325952 339247104 7.5406579754598e+14
vector 1695  BasicTopology.peer[8].bitTorrentApp.bitTorrentClient.contentManager_51  PiecesDownloaded:vector  ETV
attr source ContentManager_PieceDownloaded
attr title "Pieces Downloaded, vector"
1695	207795 862 7224779 235347253 36011.596909645268 36214.022585779649 24 0 23 276 4324
vector 1697  BasicTopology.peer[8].bitTorrentApp.bitTorrentClient.contentManager_51  TotalBytesUploaded:vector  ETV
attr source ContentManager_TotalBytesUploaded
attr title "Total of Bytes Uploaded, vector"
attr unit B
1697	216538 10107 7259292 182097512 36011.637274568243 36152.310009504571 248 16384 4063232 505872384 1.3730806434365e+15
vector 1831  BasicTopology.peer[25].bitTorrentApp.bitTorrentClient.contentManager_51  PiecesDownloaded:vector  ETV
attr source ContentManager_PieceDownloaded
attr title "Pieces Downloaded, vector"
1831	505054 862 7452562 219023068 36011.820475065887 36192.744635460766 24 0 23 276 4324
vector 1833  BasicTopology.peer[25].bitTorrentApp.bitTorrentClient.contentManager_51  TotalBytesUploaded:vector  ETV
attr source ContentManager_TotalBytesUploaded
attr title "Total of Bytes Uploaded, vector"
attr unit B