file 906951 1593887688                                          
version 2
run Test-12-20200526-20:43:24-4316
attr configname Test
attr datetime 20200526-20:43:24
attr experiment "\"Simulation Test\""
attr inifile BasicConfig.ini
attr iterationvars ""
attr iterationvars2 $repetition=12
attr measurement "\"Peers: $peers, Rate: $rate\""
attr network BasicTopology
attr processid 4316
attr repetition 12
attr replication #12
attr resultdir results
attr runnumber 12
attr seedset 12
vector 3  BasicTopology.peer[1].bitTorrentApp.bitTorrentClient  DownloadComplete_Test:vector  ETV
attr source BitTorrentClient_DownloadComplete_Test
attr title "Descargas completas (prueba), vector"
3	42445 65 153 236995660 36001 36214.676968635264 2 36001 36214.676968635 72215.676968635 2607574828.9426
vector 5  BasicTopology.peer[2].bitTorrentApp.bitTorrentClient  DownloadComplete_Test:vector  ETV
attr source BitTorrentClient_DownloadComplete_Test
attr title "Descargas completas (prueba), vector"
5	42510 65 154 220999089 36001 36186.202495239196 2 36001 36186.202495239 72187.202495239 2605513252.0264
vector 7  BasicTopology.peer[3].bitTorrentApp.bitTorrentClient  DownloadComplete_Test:vector  ETV
attr source BitTorrentClient_DownloadComplete_Test
attr title "Descargas completas (prueba), vector"
7	42575 65 155 223172603 36001 36188.948215619287 2 36001 36188.948215619 72189.948215619 2605711973.9528
vector 9  BasicTopology.peer[4].bitTorrentApp.bitTorrentClient  DownloadComplete_Test:vector  ETV
attr source BitTorrentClient_DownloadComplete_Test
attr title "Descargas completas (prueba), vector"
9	42640 63 156 208275022 36001 36170.918483599867 2 36001 36170.9184836 72171.9184836 2604407344.9472
vector 11  BasicTopology.peer[5].bitTorrentApp.bitTorrentClient  DownloadComplete_Test:vector  ETV
attr source BitTorrentClient_DownloadComplete_Test
attr title "Descargas completas (prueba), vector"
11	42703 67 157 208820155 36001 36171.570594487566 2 36001 36171.570594488 72172.570594488 2604454520.272
vector 13  BasicTopology.peer[6].bitTorrentApp.bitTorrentClient  DownloadComplete_Test:vector  ETV
attr source BitTorrentClient_DownloadComplete_Test
attr title "Descargas completas (prueba), vector"
13	42770 67 158 236415030 36001 36213.294917516382 2 36001 36213.294917516 72214.294917516 2607474729.783
vector 15  BasicTopology.peer[7].bitTorrentApp.bitTorrentClient  DownloadComplete_Test:vector  ETV
attr source BitTorrentClient_DownloadComplete_Test
attr title "Descargas completas (prueba), vector"
15	42837 66 159 202592180 36001 36164.90427053933 2 36001 36164.904270539 72165.904270539 2603972301.8973
vector 17  BasicTopology.peer[8].bitTorrentApp.bitTorrentClient  DownloadComplete_Test:vector  ETV
attr source BitTorrentClient_DownloadComplete_Test
attr title "Descargas completas (prueba), vector"
17	42903 67 160 231087318 36001 36201.033442257289 2 36001 36201.033442257 72202.033442257 2606586823.2874
vector 19  BasicTopology.peer[9].bitTorrentApp.bitTorrentClient  DownloadComplete_Test:vector  ETV
attr source BitTorrentClient_DownloadComplete_Test
attr title "Descargas completas (prueba), vector"
19	42970 67 161 203024466 36001 36165.444471804827 2 36001 36165.444471805 72166.444471805 2604011374.8432
vector 21  BasicTopology.peer[10].bitTorrentApp.bitTorrentClient  DownloadComplete_Test:vector  ETV
attr source BitTorrentClient_DownloadComplete_Test
attr title "Descargas completas (prueba), vector"
21	43037 67 162 214587970 36001 36178.347420740684 2 36001 36178.347420741 72179.347420741 2604944823.0958
vector 23  BasicTopology.peer[11].bitTorrentApp.bitTorrentClient  DownloadComplete_Test:vector  ETV
attr source BitTorrentClient_DownloadComplete_Test
attr title "Descargas completas (prueba), vector"
23	43104 66 163 230468811 36001 36199.85116702613 2 36001 36199.851167026 72200.851167026 2606501225.5148
vector 25  BasicTopology.peer[12].bitTorrentApp.bitTorrentClient  DownloadComplete_Test:vector  ETV
attr source BitTorrentClient_DownloadComplete_Test
attr title "Descargas completas (prueba), vector"
25	43170 67 164 225811456 36001 36192.634048161157 2 36001 36192.634048161 72193.634048161 2605978760.3441
vector 27  BasicTopology.peer[13].bitTorrentApp.bitTorrentClient  DownloadComplete_Test:vector  ETV
attr source BitTorrentClient_DownloadComplete_Test
attr title "Descargas completas (prueba), vector"
27	43237 67 165 228807808 36001 36196.998424381696 2 36001 36196.998424382 72197.998424382 2606294695.9347
vector 29  BasicTopology.peer[14].bitTorrentApp.bitTorrentClient  DownloadComplete_Test:vector  ETV
attr source BitTorrentClient_DownloadComplete_Test
attr title "Descargas completas (prueba), vector"
29	43304 67 166 221706224 36001 36187.124843046131 2 36001 36187.124843046 72188.124843046 2605580005.4062
vector 31  BasicTopology.peer[15].bitTorrentApp.bitTorrentClient  DownloadComplete_Test:vector  ETV
attr source BitTorrentClient_DownloadComplete_Test
attr title "Descargas completas (prueba), vector"
31	43371 67 167 232950119 36001 36204.563564097647 2 36001 36204.563564098 72205.563564098 2606842423.8668
vector 33  BasicTopology.peer[16].bitTorrentApp.bitTorrentClient  DownloadComplete_Test:vector  ETV
attr source BitTorrentClient_DownloadComplete_Test
attr title "Descargas completas (prueba), vector"
33	43438 67 168 190361868 36001 36152.223903964336 2 36001 36152.223903964 72153.223903964 2603055294.2023
vector 35  BasicTopology.peer[17].bitTorrentApp.bitTorrentClient  DownloadComplete_Test:vector  ETV
attr source BitTorrentClient_DownloadComplete_Test
attr title "Descargas completas (prueba), vector"
35	43505 67 169 232021096 36001 36203.078782847933 2 36001 36203.078782848 72204.078782848 2606734914.3571
vector 37  BasicTopology.peer[18].bitTorrentApp.bitTorrentClient  DownloadComplete_Test:vector  ETV
attr source BitTorrentClient_DownloadComplete_Test
attr title "Descargas completas (prueba), vector"
37	43572 66 170 204694748 36001 36167.210833389735 2 36001 36167.21083339 72168.21083339 2604139140.4669
vector 39  BasicTopology.peer[19].bitTorrentApp.bitTorrentClient  DownloadComplete_Test:vector  ETV
attr source BitTorrentClient_DownloadComplete_Test
attr title "Descargas completas (prueba), vector"
39	43638 67 171 206650355 36001 36169.351811651515 2 36001 36169.351811652 72170.351811652 2604294011.4751
vector 41  BasicTopology.peer[20].bitTorrentApp.bitTorrentClient  DownloadComplete_Test:vector  ETV
attr source BitTorrentClient_DownloadComplete_Test
attr title "Descargas completas (prueba), vector"
41	43705 67 172 228843226 36001 36197.046099208265 2 36001 36197.046099208 72198.046099208 2606298147.3082
vector 43  BasicTopology.peer[21].bitTorrentApp.bitTorrentClient  DownloadComplete_Test:vector  ETV
attr source BitTorrentClient_DownloadComplete_Test
attr title "Descargas completas (prueba), vector"
43	43772 67 173 228315172 36001 36196.222114846796 2 36001 36196.222114847 72197.222114847 2606238496.3873
vector 45  BasicTopology.peer[22].bitTorrentApp.bitTorrentClient  DownloadComplete_Test:vector  ETV
attr source BitTorrentClient_DownloadComplete_Test
attr title "Descargas completas (prueba), vector"
45	43839 67 174 220461109 36001 36185.469479248482 2 36001 36185.469479248 72186.469479248 2605460202.4336
vector 47  BasicTopology.peer[23].bitTorrentApp.bitTorrentClient  DownloadComplete_Test:vector  ETV
attr source BitTorrentClient_DownloadComplete_Test
attr title "Descargas completas (prueba), vector"
47	43906 67 175 234372907 36001 36208.083189497153 2 36001 36208.083189497 72209.083189497 2607097289.2575
vector 49  BasicTopology.peer[24].bitTorrentApp.bitTorrentClient  DownloadComplete_Test:vector  ETV
attr source BitTorrentClient_DownloadComplete_Test
attr title "Descargas completas (prueba), vector"
49	43973 67 176 228993746 36001 36197.334058246035 2 36001 36197.334058246 72198.334058246 2606318993.9243
vector 51  BasicTopology.peer[25].bitTorrentApp.bitTorrentClient  DownloadComplete_Test:vector  ETV
attr source BitTorrentClient_DownloadComplete_Test
attr title "Descargas completas (prueba), vector"
51	44040 67 177 230322303 36001 36199.585287657502 2 36001 36199.585287658 72200.585287658 2606481975.9984
vector 53  BasicTopology.peer[26].bitTorrentApp.bitTorrentClient  DownloadComplete_Test:vector  ETV
attr source BitTorrentClient_DownloadComplete_Test
attr title "Descargas completas (prueba), vector"
53	44107 67 178 217699453 36001 36182.141924052812 2 36001 36182.141924053 72183.141924053 2605219395.2123
vector 55  BasicTopology.peer[27].bitTorrentApp.bitTorrentClient  DownloadComplete_Test:vector  ETV
attr source BitTorrentClient_DownloadComplete_Test
attr title "Descargas completas (prueba), vector"
55	44174 66 179 218467813 36001 36182.942863039852 2 36001 36182.94286304 72183.94286304 2605277355.23
vector 57  BasicTopology.peer[28].bitTorrentApp.bitTorrentClient  DownloadComplete_Test:vector  ETV
attr source BitTorrentClient_DownloadComplete_Test
attr title "Descargas completas (prueba), vector"
57	44240 67 180 228728121 36001 36196.879231393493 2 36001 36196.879231393 72197.879231393 2606286067.0921
vector 59  BasicTopology.peer[29].bitTorrentApp.bitTorrentClient  DownloadComplete_Test:vector  ETV
attr source BitTorrentClient_DownloadComplete_Test
attr title "Descargas completas (prueba), vector"
59	44307 67 181 234846586 36001 36209.372790879098 2 36001 36209.372790879 72210.372790879 2607190678.9088
vector 61  BasicTopology.peer[30].bitTorrentApp.bitTorrentClient  DownloadComplete_Test:vector  ETV
attr source BitTorrentClient_DownloadComplete_Test
attr title "Descargas completas (prueba), vector"
61	44374 67 182 221155600 36001 36186.380191394201 2 36001 36186.380191394 72187.380191394 2605526112.3561
vector 63  BasicTopology.peer[31].bitTorrentApp.bitTorrentClient  DownloadComplete_Test:vector  ETV
attr source BitTorrentClient_DownloadComplete_Test
attr title "Descargas completas (prueba), vector"
63	44441 67 183 230552468 36001 36200.090512031307 2 36001 36200.090512031 72201.090512031 2606518554.0792
vector 65  BasicTopology.peer[32].bitTorrentApp.bitTorrentClient  DownloadComplete_Test:vector  ETV
attr source BitTorrentClient_DownloadComplete_Test
attr title "Descargas completas (prueba), vector"
65	44508 67 184 235364622 36001 36210.702185658383 2 36001 36210.702185658 72211.702185658 2607286953.7784
vector 67  BasicTopology.peer[33].bitTorrentApp.bitTorrentClient  DownloadComplete_Test:vector  ETV
attr source BitTorrentClient_DownloadComplete_Test
attr title "Descargas completas (prueba), vector"
67	44575 67 185 221118771 36001 36186.327153478839 2 36001 36186.327153479 72187.327153479 2605522273.8586
vector 69  BasicTopology.peer[34].bitTorrentApp.bitTorrentClient  DownloadComplete_Test:vector  ETV
attr source BitTorrentClient_DownloadComplete_Test
attr title "Descargas completas (prueba), vector"
69	44642 67 186 215665568 36001 36179.684423888148 2 36001 36179.684423888 72180.684423888 2605041566.0121
vector 71  BasicTopology.peer[35].bitTorrentApp.bitTorrentClient  DownloadComplete_Test:vector  ETV
attr source BitTorrentClient_DownloadComplete_Test
attr title "Descargas completas (prueba), vector"
71	44709 67 187 231900974 36001 36202.683188530638 2 36001 36202.683188531 72203.683188531 2606706271.0491
vector 73  BasicTopology.peer[36].bitTorrentApp.bitTorrentClient  DownloadComplete_Test:vector  ETV
attr source BitTorrentClient_DownloadComplete_Test
attr title "Descargas completas (prueba), vector"
73	44776 67 188 229388014 36001 36197.957445603925 2 36001 36197.957445604 72198.957445604 2606364124.2338
vector 75  BasicTopology.peer[37].bitTorrentApp.bitTorrentClient  DownloadComplete_Test:vector  ETV
attr source BitTorrentClient_DownloadComplete_Test
attr title "Descargas completas (prueba), vector"
75	44843 67 189 216683228 36001 36180.950671142197 2 36001 36180.950671142 72181.950671142 2605133192.4676
vector 77  BasicTopology.peer[38].bitTorrentApp.bitTorrentClient  DownloadComplete_Test:vector  ETV
attr source BitTorrentClient_DownloadComplete_Test
attr title "Descargas completas (prueba), vector"
77	44910 67 190 236675430 36001 36214.066957105033 2 36001 36214.066957105 72215.066957105 2607530646.5737
vector 79  BasicTopology.peer[39].bitTorrentApp.bitTorrentClient  DownloadComplete_Test:vector  ETV
attr source BitTorrentClient_DownloadComplete_Test
attr title "Descargas completas (prueba), vector"
79	44977 67 191 230905609 36001 36200.752472376646 2 36001 36200.752472377 72201.752472377 2606566480.5663
vector 81  BasicTopology.peer[40].bitTorrentApp.bitTorrentClient  DownloadComplete_Test:vector  ETV
attr source BitTorrentClient_DownloadComplete_Test
attr title "Descargas completas (prueba), vector"
81	45044 67 192 237924353 36001 36219.062551978852 2 36001 36219.062551979 72220.062551979 2607892493.1442
vector 83  BasicTopology.peer[41].bitTorrentApp.bitTorrentClient  DownloadComplete_Test:vector  ETV
attr source BitTorrentClient_DownloadComplete_Test
attr title "Descargas completas (prueba), vector"
83	45111 67 193 239929042 36001 36248.160144825996 2 36001 36248.160144826 72249.160144826 2610001114.885
vector 85  BasicTopology.peer[42].bitTorrentApp.bitTorrentClient  DownloadComplete_Test:vector  ETV
attr source BitTorrentClient_DownloadComplete_Test
attr title "Descargas completas (prueba), vector"
85	45178 67 194 199296130 36001 36161.527823721586 2 36001 36161.527823722 72162.527823722 2603728095.5458
vector 87  BasicTopology.peer[43].bitTorrentApp.bitTorrentClient  DownloadComplete_Test:vector  ETV
attr source BitTorrentClient_DownloadComplete_Test
attr title "Descargas completas (prueba), vector"
87	45245 67 195 187811966 36001 36149.709772747447 2 36001 36149.709772747 72150.709772747 2602873517.6538
vector 89  BasicTopology.peer[44].bitTorrentApp.bitTorrentClient  DownloadComplete_Test:vector  ETV
attr source BitTorrentClient_DownloadComplete_Test
attr title "Descargas completas (prueba), vector"
89	45312 67 196 204946637 36001 36167.481922846709 2 36001 36167.481922847 72168.481922847 2604158749.6395
vector 91  BasicTopology.peer[45].bitTorrentApp.bitTorrentClient  DownloadComplete_Test:vector  ETV
attr source BitTorrentClient_DownloadComplete_Test
attr title "Descargas completas (prueba), vector"
91	45379 67 197 212213882 36001 36175.708398201043 2 36001 36175.708398201 72176.708398201 2604753879.1117
vector 93  BasicTopology.peer[46].bitTorrentApp.bitTorrentClient  DownloadComplete_Test:vector  ETV
attr source BitTorrentClient_DownloadComplete_Test
attr title "Descargas completas (prueba), vector"
93	45446 66 198 223431192 36001 36189.297831139525 2 36001 36189.29783114 72190.29783114 2605737278.511
vector 95  BasicTopology.peer[47].bitTorrentApp.bitTorrentClient  DownloadComplete_Test:vector  ETV
attr source BitTorrentClient_DownloadComplete_Test
attr title "Descargas completas (prueba), vector"
95	45512 67 199 235972955 36001 36212.017911547692 2 36001 36212.017911548 72213.017911548 2607382242.2263
vector 97  BasicTopology.peer[48].bitTorrentApp.bitTorrentClient  DownloadComplete_Test:vector  ETV
attr source BitTorrentClient_DownloadComplete_Test
attr title "Descargas completas (prueba), vector"
97	45579 67 200 233129328 36001 36204.858081925193 2 36001 36204.858081925 72205.858081925 2606863749.7323
vector 99  BasicTopology.peer[49].bitTorrentApp.bitTorrentClient  DownloadComplete_Test:vector  ETV
attr source BitTorrentClient_DownloadComplete_Test
attr title "Descargas completas (prueba), vector"
99	45646 67 201 212483540 36001 36175.992925949227 2 36001 36175.992925949 72176.992925949 2604774465.1783
vector 1633  BasicTopology.peer[0].bitTorrentApp.bitTorrentClient.contentManager_51  TotalBytesUploaded:vector  ETV
attr source ContentManager_TotalBytesUploaded
attr title "Total of Bytes Uploaded, vector"
attr unit B
1633	45713 19700 366411 230726277 36001.128603411378 36200.530278412769 484 16384 7929856 1922990080 1.0176525039043e+16
vector 1872  BasicTopology.peer[30].bitTorrentApp.bitTorrentClient.contentManager_51  TotalBytesDownloaded:vector  ETV
attr source ContentManager_TotalBytesDownloaded
attr title "Total of Bytes Downloaded, vector"
attr unit B
1872	560392 7799 537524 221155600 36001.212641571155 36186.380191394201 192 16384 3145728 303562752 6.3827508985856e+14
vector 1808  BasicTopology.peer[22].bitTorrentApp.bitTorrentClient.contentManager_51  TotalBytesDownloaded:vector  ETV
attr source ContentManager_TotalBytesDownloaded
attr title "Total of Bytes Downloaded, vector"
attr unit B
1808	440809 7941 1646305 220461109 36002.667805574024 36185.469479248482 194 16384 3178496 309903360 6.5837687898112e+14
vector 1888  BasicTopology.peer[32].bitTorrentApp.bitTorrentClient.contentManager_51  TotalBytesDownloaded:vector  ETV
attr source ContentManager_TotalBytesDownloaded
attr title "Total of Bytes Downloaded, vector"
attr unit B
1888	606006 7872 1817774 235364622 36003.066194189666 36210.702185658383 192 16384 3145728 303562752 6.3827508985856e+14
vector 1871  BasicTopology.peer[30].bitTorrentApp.bitTorrentClient.contentManager_51  PiecesDownloaded:vector  ETV
attr source ContentManager_PieceDownloaded
attr title "Pieces Downloaded, vector"
1871	559538 854 1975449 221155600 36003.72460778263 36186.380191394201 24 0 23 276 4324
vector 1873  BasicTopology.peer[30].bitTorrentApp.bitTorrentClient.contentManager_51  TotalBytesUploaded:vector  ETV
attr source ContentManager_TotalBytesUploaded
attr title "Total of Bytes Uploaded, vector"
attr unit B
1873	568191 22593 2010006 221190239 36003.803560488163 36186.436198685003 552 16384 9043968 2500657152 1.5090899096699e+16
vector 1720  BasicTopology.peer[11].bitTorrentApp.bitTorrentClient.contentManager_51  TotalBytesDownloaded:vector  ETV
attr source ContentManager_TotalBytesDownloaded
attr title "Total of Bytes Downloaded, vector"
attr unit B
1720	258508 8277 2094548 230468811 36003.94907186792 36199.85116702613 202 16384 3309568 335921152 7.4300384083968e+14
vector 1887  BasicTopology.peer[32].bitTorrentApp.bitTorrentClient.contentManager_51  PiecesDownloaded:vector  ETV
attr source ContentManager_PieceDownloaded
attr title "Pieces Downloaded, vector"
1887	605143 863 2668168 235364622 36004.405419049427 36210.702185658383 24 0 23 276 4324
vector 1889  BasicTopology.peer[32].bitTorrentApp.bitTorrentClient.contentManager_51  TotalBytesUploaded:vector  ETV
attr source ContentManager_TotalBytesUploaded
attr title "Total of Bytes Uploaded, vector"
attr unit B
1889	613878 13692 2748830 208221426 36004.510613848021 36170.860303842872 336 16384 5505024 927596544 3.4093600719503e+15
vector 1816  BasicTopology.peer[23].bitTorrentApp.bitTorrentClient.contentManager_51  TotalBytesDownloaded:vector  ETV
attr source ContentManager_TotalBytesDownloaded
attr title "Total of Bytes Downloaded, vector"
attr unit B
1816	456485 8332 3398377 234372907 36005.322683253968 36208.083189497153 202 16384 3309568 335921152 7.4300384083968e+14
vector 1768  BasicTopology.peer[17].bitTorrentApp.bitTorrentClient.contentManager_51  TotalBytesDownloaded:vector  ETV
attr source ContentManager_TotalBytesDownloaded
attr title "Total of Bytes Downloaded, vector"
attr unit B
1768	353448 8055 3428003 232021096 36005.382980088722 36203.078782847933 196 16384 3211264 316309504 6.7889635367322e+14
vector 1648  BasicTopology.peer[2].bitTorrentApp.bitTorrentClient.contentManager_51  TotalBytesDownloaded:vector  ETV
attr source ContentManager_TotalBytesDownloaded
attr title "Total of Bytes Downloaded, vector"
attr unit B
1648	84923 7814 3527604 220999089 36005.521878366632 36186.202495239196 192 16384 3145728 303562752 6.3827508985856e+14
vector 1912  BasicTopology.peer[35].bitTorrentApp.bitTorrentClient.contentManager_51  TotalBytesDownloaded:vector  ETV
attr source ContentManager_TotalBytesDownloaded
attr title "Total of Bytes Downloaded, vector"
attr unit B
1912	656166 8227 3543895 231900974 36005.537109697619 36202.683188530638 200 16384 3276800 329318400 7.212055396352e+14
vector 1647  BasicTopology.peer[2].bitTorrentApp.bitTorrentClient.contentManager_51  PiecesDownloaded:vector  ETV
attr source ContentManager_PieceDownloaded
attr title "Pieces Downloaded, vector"
1647	84067 856 3766878 220999089 36005.797559235136 36186.202495239196 24 0 23 276 4324
vector 1649  BasicTopology.peer[2].bitTorrentApp.bitTorrentClient.contentManager_51  TotalBytesUploaded:vector  ETV
attr source ContentManager_TotalBytesUploaded
attr title "Total of Bytes Uploaded, vector"
attr unit B
1649	92737 13945 3813502 194038616 36005.852888067357 36156.163909338463 343 16384 5619712 966590464 3.6265855591383e+15
vector 1656  BasicTopology.peer[3].bitTorrentApp.bitTorrentClient.contentManager_51  TotalBytesDownloaded:vector  ETV
attr source ContentManager_TotalBytesDownloaded
attr title "Total of Bytes Downloaded, vector"
attr unit B
1656	107537 7820 3869644 223172603 36005.923777521711 36188.948215619287 192 16384 3145728 303562752 6.3827508985856e+14
vector 1807  BasicTopology.peer[22].bitTorrentApp.bitTorrentClient.contentManager_51  PiecesDownloaded:vector  ETV
attr source ContentManager_PieceDownloaded
attr title "Pieces Downloaded, vector"
1807	439944 865 3907565 220461109 36005.971975656575 36185.469479248482 24 0 23 276 4324
vector 1680  BasicTopology.peer[6].bitTorrentApp.bitTorrentClient.contentManager_51  TotalBytesDownloaded:vector  ETV
attr source ContentManager_TotalBytesDownloaded
attr title "Total of Bytes Downloaded, vector"
attr unit B
1680	167143 7862 3910046 236415030 36005.974316102323 36213.294917516382 192 16384 3145728 303562752 6.3827508985856e+14
vector 1809  BasicTopology.peer[22].bitTorrentApp.bitTorrentClient.contentManager_51  TotalBytesUploaded:vector  ETV
attr source ContentManager_TotalBytesUploaded
attr title "Total of Bytes Uploaded, vector"
attr unit B
1809	448750 6864 4019821 145250908 36006.08263810254 36110.51545121239 170 16384 2785280 238141440 4.4349429645312e+14
vector 1880  BasicTopology.peer[31].bitTorrentApp.bitTorrentClient.contentManager_51  TotalBytesDownloaded:vector  ETV
attr source ContentManager_TotalBytesDownloaded
attr title "Total of Bytes Downloaded, vector"
attr unit B
1880	591644 7836 4040378 230552468 36006.108393678916 36200.090512031307 192 16384 3145728 303562752 6.3827508985856e+14
vector 1792  BasicTopology.peer[20].bitTorrentApp.bitTorrentClient.contentManager_51  TotalBytesDownloaded:vector  ETV
attr source ContentManager_TotalBytesDownloaded
attr title "Total of Bytes Downloaded, vector"
attr unit B
1792	404481 7871 4290818 228843226 36006.627388648479 36197.046099208265 192 16384 3145728 303562752 6.3827508985856e+14
vector 1791  BasicTopology.peer[20].bitTorrentApp.bitTorrentClient.contentManager_51  PiecesDownloaded:vector  ETV
attr source ContentManager_PieceDownloaded
attr title "Pieces Downloaded, vector"
1791	403618 863 4401352 228843226 36006.865454013101 36197.046099208265 24 0 23 276 4324
vector 1793  BasicTopology.peer[20].bitTorrentApp.bitTorrentClient.contentManager_51  TotalBytesUploaded:vector  ETV
attr source ContentManager_TotalBytesUploaded
attr title "Total of Bytes Uploaded, vector"
attr unit B
1793	412352 5489 4435440 165659492 36006.914322707148 36128.04446796188 136 16384 2228224 152633344 2.2756776843674e+14
vector 1976  BasicTopology.peer[43].bitTorrentApp.bitTorrentClient.contentManager_51  TotalBytesDownloaded:vector  ETV
attr source ContentManager_TotalBytesDownloaded
attr title "Total of Bytes Downloaded, vector"
attr unit B
1976	787468 8239 4449731 222213120 36006.934222564461 36187.776761697082 202 16384 3309568 335921152 7.4300384083968e+14
vector 1664  BasicTopology.peer[4].bitTorrentApp.bitTorrentClient.contentManager_51  TotalBytesDownloaded:vector  ETV
attr source ContentManager_TotalBytesDownloaded
attr title "Total of Bytes Downloaded, vector"
attr unit B
1664	127432 7832 4550211 208275022 36007.040422080505 36170.918483599867 192 16384 3145728 303562752 6.3827508985856e+14
vector 1719  BasicTopology.peer[11].bitTorrentApp.bitTorrentClient.contentManager_51  PiecesDownloaded:vector  ETV
attr source ContentManager_PieceDownloaded
attr title "Pieces Downloaded, vector"
1719	257646 862 4770432 230468811 36007.264389219738 36199.85116702613 24 0 23 276 4324
vector 1721  BasicTopology.peer[11].bitTorrentApp.bitTorrentClient.contentManager_51  TotalBytesUploaded:vector  ETV
attr source ContentManager_TotalBytesUploaded
attr title "Total of Bytes Uploaded, vector"
attr unit B
1721	266785 12149 4820559 234319652 36007.344865232602 36207.970826492772 296 16384 4849664 720175104 2.332337966678e+15
vector 1679  BasicTopology.peer[6].bitTorrentApp.bitTorrentClient.contentManager_51  PiecesDownloaded:vector  ETV
attr source ContentManager_PieceDownloaded
attr title "Pieces Downloaded, vector"
1679	166280 863 4865513 236415030 36007.418122593151 36213.294917516382 24 0 23 276 4324
vector 1681  BasicTopology.peer[6].bitTorrentApp.bitTorrentClient.contentManager_51  TotalBytesUploaded:vector  ETV
attr source ContentManager_TotalBytesUploaded
attr title "Total of Bytes Uploaded, vector"
attr unit B
1681	175005 14849 4874603 226364808 36007.428250092008 36193.376475503181 363 16384 5947392 1082425344 4.2976500399473e+15
vector 1672  BasicTopology.peer[5].bitTorrentApp.bitTorrentClient.contentManager_51  TotalBytesDownloaded:vector  ETV
attr source ContentManager_TotalBytesDownloaded
attr title "Total of Bytes Downloaded, vector"
attr unit B
1672	148596 7864 4916018 208820155 36007.477135047389 36171.570594487566 192 16384 3145728 303562752 6.3827508985856e+14
vector 1832  BasicTopology.peer[25].bitTorrentApp.bitTorrentClient.contentManager_51  TotalBytesDownloaded:vector  ETV
attr source ContentManager_TotalBytesDownloaded
attr title "Total of Bytes Downloaded, vector"
attr unit B
1832	485527 11010 5310008 235743977 36007.995751180142 36211.307027528985 266 16384 4358144 581812224 1.6935917725942e+15
vector 1911  BasicTopology.peer[35].bitTorrentApp.bitTorrentClient.contentManager_51  PiecesDownloaded:vector  ETV
attr source ContentManager_PieceDownloaded
attr title "Pieces Downloaded, vector"
1911	655295 871 5387212 231900974 36008.097657083757 36202.683188530638 24 0 23 276 4324
vector 1913  BasicTopology.peer[35].bitTorrentApp.bitTorrentClient.contentManager_51  TotalBytesUploaded:vector  ETV
attr source ContentManager_TotalBytesUploaded
attr title "Total of Bytes Uploaded, vector"
attr unit B
1913	664393 8059 5465177 197645691 36008.184946519263 36159.978810295859 198 16384 3244032 322781184 6.9983780890214e+14
vector 1752  BasicTopology.peer[15].bitTorrentApp.bitTorrentClient.contentManager_51  TotalBytesDownloaded:vector  ETV
attr source ContentManager_TotalBytesDownloaded
attr title "Total of Bytes Downloaded, vector"
attr unit B
1752	326009 7934 5623310 232950119 36008.41048274668 36204.563564097647 193 16384 3162112 306724864 6.482740421591e+14
vector 1896  BasicTopology.peer[33].bitTorrentApp.bitTorrentClient.contentManager_51  TotalBytesDownloaded:vector  ETV
attr source ContentManager_TotalBytesDownloaded
attr title "Total of Bytes Downloaded, vector"
attr unit B
1896	628438 8353 5974280 224939518 36008.668516257549 36191.286401535986 203 16384 3325952 339247104 7.5406579754598e+14
vector 1704  BasicTopology.peer[9].bitTorrentApp.bitTorrentClient.contentManager_51  TotalBytesDownloaded:vector  ETV
attr source ContentManager_TotalBytesDownloaded
attr title "Total of Bytes Downloaded, vector"
attr unit B
1704	221715 8609 6104416 208102032 36008.92855851283 36170.74243613391 210 16384 3440640 362987520 8.3458864971776e+14
vector 1800  BasicTopology.peer[21].bitTorrentApp.bitTorrentClient.contentManager_51  TotalBytesDownloaded:vector  ETV
attr source ContentManager_TotalBytesDownloaded
attr title "Total of Bytes Downloaded, vector"
attr unit B
1800	418705 7921 6165303 228315172 36009.007027993647 36196.222114846796 193 16384 3162112 306724864 6.482740421591e+14
vector 1655  BasicTopology.peer[3].bitTorrentApp.bitTorrentClient.contentManager_51  PiecesDownloaded:vector  ETV
attr source ContentManager_PieceDownloaded
attr title "Pieces Downloaded, vector"
1655	106682 855 6377177 223172603 36009.295113260991 36188.948215619287 24 0 23 276 4324
vector 1663  BasicTopology.peer[4].bitTorrentApp.bitTorrentClient.contentManager_51  PiecesDownloaded:vector  ETV
attr source ContentManager_PieceDownloaded
attr title "Pieces Downloaded, vector"
1663	126572 860 6453344 208275022 36009.367027413898 36170.918483599867 24 0 23 276 4324
vector 1879  BasicTopology.peer[31].bitTorrentApp.bitTorrentClient.contentManager_51  PiecesDownloaded:vector  ETV
attr source ContentManager_PieceDownloaded
attr title "Pieces Downloaded, vector"
1879	590784 860 6475907 230552468 36009.38128463444 36200.090512031307 24 0 23 276 4324
vector 1665  BasicTopology.peer[4].bitTorrentApp.bitTorrentClient.contentManager_51  TotalBytesUploaded:vector  ETV
attr source ContentManager_TotalBytesUploaded
attr title "Total of Bytes Uploaded, vector"
attr unit B
1665	135264 12471 6515759 191289926 36009.407697372597 36153.193724353283 305 16384 4997120 764559360 2.5512387595469e+15
vector 1881  BasicTopology.peer[31].bitTorrentApp.bitTorrentClient.contentManager_51  TotalBytesUploaded:vector  ETV
attr source ContentManager_TotalBytesUploaded
attr title "Total of Bytes Uploaded, vector"
attr unit B
1881	599480 5663 6559919 224357793 36009.440685816212 36190.571473671371 140 16384 2293760 161710080 2.4816589471744e+14
vector 1831  BasicTopology.peer[25].bitTorrentApp.bitTorrentClient.contentManager_51  PiecesDownloaded:vector  ETV
attr source ContentManager_PieceDownloaded
attr title "Pieces Downloaded, vector"
1831	484658 869 6608742 230322303 36009.477746847613 36199.585287657502 24 0 23 276 4324
vector 1640  BasicTopology.peer[1].bitTorrentApp.bitTorrentClient.contentManager_51  TotalBytesDownloaded:vector  ETV
attr source ContentManager_TotalBytesDownloaded
attr title "Total of Bytes Downloaded, vector"
attr unit B
1640	66273 7846 6619716 236995660 36009.484895392015 36214.676968635264 192 16384 3145728 303562752 6.3827508985856e+14