file 907578 1593887688                                          
version 2
run Test-4-20200526-20:42:14-4197
attr configname Test
attr datetime 20200526-20:42:14
attr experiment "\"Simulation Test\""
attr inifile BasicConfig.ini
attr iterationvars ""
attr iterationvars2 $repetition=4
attr measurement "\"Peers: $peers, Rate: $rate\""
attr network BasicTopology
attr processid 4197
attr repetition 4
attr replication #4
attr resultdir results
attr runnumber 4
attr seedset 4
vector 3  BasicTopology.peer[1].bitTorrentApp.bitTorrentClient  DownloadComplete_Test:vector  ETV
attr source BitTorrentClient_DownloadComplete_Test
attr title "Descargas completas (prueba), vector"
3	42439 65 153 221002208 36001 36190.223499187453 2 36001 36190.223499187 72191.223499187 2605804277.9211
vector 5  BasicTopology.peer[2].bitTorrentApp.bitTorrentClient  DownloadComplete_Test:vector  ETV
attr source BitTorrentClient_DownloadComplete_Test
attr title "Descargas completas (prueba), vector"
5	42504 64 154 78172954 36001 36063.955536117416 2 36001 36063.955536117 72064.955536117 2596680889.911
vector 7  BasicTopology.peer[3].bitTorrentApp.bitTorrentClient  DownloadComplete_Test:vector  ETV
attr source BitTorrentClient_DownloadComplete_Test
attr title "Descargas completas (prueba), vector"
7	42568 65 155 218114418 36001 36186.655845241682 2 36001 36186.655845242 72187.655845242 2605546062.262
vector 9  BasicTopology.peer[4].bitTorrentApp.bitTorrentClient  DownloadComplete_Test:vector  ETV
attr source BitTorrentClient_DownloadComplete_Test
attr title "Descargas completas (prueba), vector"
9	42633 65 156 214250862 36001 36181.943684188369 2 36001 36181.943684188 72182.943684188 2605205049.7658
vector 11  BasicTopology.peer[5].bitTorrentApp.bitTorrentClient  DownloadComplete_Test:vector  ETV
attr source BitTorrentClient_DownloadComplete_Test
attr title "Descargas completas (prueba), vector"
11	42698 67 157 197252192 36001 36160.827376754609 2 36001 36160.827376755 72161.827376755 2603677437.5715
vector 13  BasicTopology.peer[6].bitTorrentApp.bitTorrentClient  DownloadComplete_Test:vector  ETV
attr source BitTorrentClient_DownloadComplete_Test
attr title "Descargas completas (prueba), vector"
13	42765 67 158 233591194 36001 36210.872941583677 2 36001 36210.872941584 72211.872941584 2607299320.1915
vector 15  BasicTopology.peer[7].bitTorrentApp.bitTorrentClient  DownloadComplete_Test:vector  ETV
attr source BitTorrentClient_DownloadComplete_Test
attr title "Descargas completas (prueba), vector"
15	42832 67 159 186923953 36001 36149.989745377934 2 36001 36149.989745378 72150.989745378 2602893759.5909
vector 17  BasicTopology.peer[8].bitTorrentApp.bitTorrentClient  DownloadComplete_Test:vector  ETV
attr source BitTorrentClient_DownloadComplete_Test
attr title "Descargas completas (prueba), vector"
17	42899 67 160 209143120 36001 36175.309282677797 2 36001 36175.309282678 72176.309282678 2604725002.6974
vector 19  BasicTopology.peer[9].bitTorrentApp.bitTorrentClient  DownloadComplete_Test:vector  ETV
attr source BitTorrentClient_DownloadComplete_Test
attr title "Descargas completas (prueba), vector"
19	42966 67 161 234356441 36001 36212.394344038189 2 36001 36212.394344038 72213.394344038 2607409505.1281
vector 21  BasicTopology.peer[10].bitTorrentApp.bitTorrentClient  DownloadComplete_Test:vector  ETV
attr source BitTorrentClient_DownloadComplete_Test
attr title "Descargas completas (prueba), vector"
21	43033 67 162 175341780 36001 36139.172383739124 2 36001 36139.172383739 72140.172383739 2602111781.5816
vector 23  BasicTopology.peer[11].bitTorrentApp.bitTorrentClient  DownloadComplete_Test:vector  ETV
attr source BitTorrentClient_DownloadComplete_Test
attr title "Descargas completas (prueba), vector"
23	43100 67 163 219397327 36001 36188.272783479185 2 36001 36188.272783479 72189.272783479 2605663088.0515
vector 25  BasicTopology.peer[12].bitTorrentApp.bitTorrentClient  DownloadComplete_Test:vector  ETV
attr source BitTorrentClient_DownloadComplete_Test
attr title "Descargas completas (prueba), vector"
25	43167 66 164 226054054 36001 36197.98560690412 2 36001 36197.985606904 72198.985606904 2606366162.9976
vector 27  BasicTopology.peer[13].bitTorrentApp.bitTorrentClient  DownloadComplete_Test:vector  ETV
attr source BitTorrentClient_DownloadComplete_Test
attr title "Descargas completas (prueba), vector"
27	43233 67 165 224439992 36001 36195.530714970752 2 36001 36195.530714971 72196.530714971 2606188444.7384
vector 29  BasicTopology.peer[14].bitTorrentApp.bitTorrentClient  DownloadComplete_Test:vector  ETV
attr source BitTorrentClient_DownloadComplete_Test
attr title "Descargas completas (prueba), vector"
29	43300 67 166 238948714 36001 36303.744098588963 2 36001 36303.744098589 72304.744098589 2614033836.5758
vector 31  BasicTopology.peer[15].bitTorrentApp.bitTorrentClient  DownloadComplete_Test:vector  ETV
attr source BitTorrentClient_DownloadComplete_Test
attr title "Descargas completas (prueba), vector"
31	43367 66 167 237847752 36001 36248.37648937681 2 36001 36248.376489377 72249.376489377 2610016799.1156
vector 33  BasicTopology.peer[16].bitTorrentApp.bitTorrentClient  DownloadComplete_Test:vector  ETV
attr source BitTorrentClient_DownloadComplete_Test
attr title "Descargas completas (prueba), vector"
33	43433 66 168 210098312 36001 36176.54572558737 2 36001 36176.545725587 72177.545725587 2604814461.6355
vector 35  BasicTopology.peer[17].bitTorrentApp.bitTorrentClient  DownloadComplete_Test:vector  ETV
attr source BitTorrentClient_DownloadComplete_Test
attr title "Descargas completas (prueba), vector"
35	43499 67 169 217889475 36001 36186.398328778824 2 36001 36186.398328779 72187.398328779 2605527425.0091
vector 37  BasicTopology.peer[18].bitTorrentApp.bitTorrentClient  DownloadComplete_Test:vector  ETV
attr source BitTorrentClient_DownloadComplete_Test
attr title "Descargas completas (prueba), vector"
37	43566 64 170 227573900 36001 36200.51108609962 2 36001 36200.5110861 72201.5110861 2606549003.8948
vector 39  BasicTopology.peer[19].bitTorrentApp.bitTorrentClient  DownloadComplete_Test:vector  ETV
attr source BitTorrentClient_DownloadComplete_Test
attr title "Descargas completas (prueba), vector"
39	43630 67 171 231665064 36001 36206.772277901892 2 36001 36206.772277902 72207.772277902 2607002359.7839
vector 41  BasicTopology.peer[20].bitTorrentApp.bitTorrentClient  DownloadComplete_Test:vector  ETV
attr source BitTorrentClient_DownloadComplete_Test
attr title "Descargas completas (prueba), vector"
41	43697 67 172 219176953 36001 36187.994920858807 2 36001 36187.994920859 72188.994920859 2605642977.3921
vector 43  BasicTopology.peer[21].bitTorrentApp.bitTorrentClient  DownloadComplete_Test:vector  ETV
attr source BitTorrentClient_DownloadComplete_Test
attr title "Descargas completas (prueba), vector"
43	43764 66 173 232138817 36001 36207.734160789696 2 36001 36207.73416079 72208.73416079 2607072014.0584
vector 45  BasicTopology.peer[22].bitTorrentApp.bitTorrentClient  DownloadComplete_Test:vector  ETV
attr source BitTorrentClient_DownloadComplete_Test
attr title "Descargas completas (prueba), vector"
45	43830 67 174 233655350 36001 36210.979278272999 2 36001 36210.979278273 72211.979278273 2607307021.2915
vector 47  BasicTopology.peer[23].bitTorrentApp.bitTorrentClient  DownloadComplete_Test:vector  ETV
attr source BitTorrentClient_DownloadComplete_Test
attr title "Descargas completas (prueba), vector"
47	43897 67 175 219859522 36001 36188.817240497231 2 36001 36188.817240497 72189.817240497 2605702494.2661
vector 49  BasicTopology.peer[24].bitTorrentApp.bitTorrentClient  DownloadComplete_Test:vector  ETV
attr source BitTorrentClient_DownloadComplete_Test
attr title "Descargas completas (prueba), vector"
49	43964 67 176 221995408 36001 36191.820855719068 2 36001 36191.820855719 72192.820855719 2605919897.8525
vector 51  BasicTopology.peer[25].bitTorrentApp.bitTorrentClient  DownloadComplete_Test:vector  ETV
attr source BitTorrentClient_DownloadComplete_Test
attr title "Descargas completas (prueba), vector"
51	44031 67 177 235505342 36001 36220.257332705749 2 36001 36220.257332706 72221.257332706 2607979042.2474
vector 53  BasicTopology.peer[26].bitTorrentApp.bitTorrentClient  DownloadComplete_Test:vector  ETV
attr source BitTorrentClient_DownloadComplete_Test
attr title "Descargas completas (prueba), vector"
53	44098 66 178 215539358 36001 36183.499275919673 2 36001 36183.49927592 72184.49927592 2605317620.8505
vector 55  BasicTopology.peer[27].bitTorrentApp.bitTorrentClient  DownloadComplete_Test:vector  ETV
attr source BitTorrentClient_DownloadComplete_Test
attr title "Descargas completas (prueba), vector"
55	44164 67 179 229745744 36001 36203.951053675916 2 36001 36203.951053676 72204.951053676 2606798072.897
vector 57  BasicTopology.peer[28].bitTorrentApp.bitTorrentClient  DownloadComplete_Test:vector  ETV
attr source BitTorrentClient_DownloadComplete_Test
attr title "Descargas completas (prueba), vector"
57	44231 66 180 225848514 36001 36197.58282361707 2 36001 36197.582823617 72198.582823617 2606337003.2726
vector 59  BasicTopology.peer[29].bitTorrentApp.bitTorrentClient  DownloadComplete_Test:vector  ETV
attr source BitTorrentClient_DownloadComplete_Test
attr title "Descargas completas (prueba), vector"
59	44297 66 181 231029973 36001 36205.74583023157 2 36001 36205.745830232 72206.745830232 2606928032.1234
vector 61  BasicTopology.peer[30].bitTorrentApp.bitTorrentClient  DownloadComplete_Test:vector  ETV
attr source BitTorrentClient_DownloadComplete_Test
attr title "Descargas completas (prueba), vector"
61	44363 67 182 195988745 36001 36159.385936021214 2 36001 36159.385936021 72160.385936021 2603573192.2701
vector 63  BasicTopology.peer[31].bitTorrentApp.bitTorrentClient  DownloadComplete_Test:vector  ETV
attr source BitTorrentClient_DownloadComplete_Test
attr title "Descargas completas (prueba), vector"
63	44430 66 183 199844210 36001 36163.933130980298 2 36001 36163.93313098 72164.93313098 2603902060.502
vector 65  BasicTopology.peer[32].bitTorrentApp.bitTorrentClient  DownloadComplete_Test:vector  ETV
attr source BitTorrentClient_DownloadComplete_Test
attr title "Descargas completas (prueba), vector"
65	44496 67 184 228957035 36001 36202.608538754525 2 36001 36202.608538755 72203.608538755 2606700866.0103
vector 67  BasicTopology.peer[33].bitTorrentApp.bitTorrentClient  DownloadComplete_Test:vector  ETV
attr source BitTorrentClient_DownloadComplete_Test
attr title "Descargas completas (prueba), vector"
67	44563 67 185 234641339 36001 36213.146776492082 2 36001 36213.146776492 72214.146776492 2607464000.4558
vector 69  BasicTopology.peer[34].bitTorrentApp.bitTorrentClient  DownloadComplete_Test:vector  ETV
attr source BitTorrentClient_DownloadComplete_Test
attr title "Descargas completas (prueba), vector"
69	44630 67 186 221845492 36001 36191.537741773633 2 36001 36191.537741774 72192.537741774 2605899405.1143
vector 71  BasicTopology.peer[35].bitTorrentApp.bitTorrentClient  DownloadComplete_Test:vector  ETV
attr source BitTorrentClient_DownloadComplete_Test
attr title "Descargas completas (prueba), vector"
71	44697 67 187 238702685 36001 36302.473457128819 2 36001 36302.473457129 72303.473457129 2613941580.1056
vector 73  BasicTopology.peer[36].bitTorrentApp.bitTorrentClient  DownloadComplete_Test:vector  ETV
attr source BitTorrentClient_DownloadComplete_Test
attr title "Descargas completas (prueba), vector"
73	44764 67 188 212798744 36001 36179.897688718088 2 36001 36179.897688718 72180.897688718 2605056997.7661
vector 75  BasicTopology.peer[37].bitTorrentApp.bitTorrentClient  DownloadComplete_Test:vector  ETV
attr source BitTorrentClient_DownloadComplete_Test
attr title "Descargas completas (prueba), vector"
75	44831 67 189 220952665 36001 36190.165133038086 2 36001 36190.165133038 72191.165133038 2605800053.3566
vector 77  BasicTopology.peer[38].bitTorrentApp.bitTorrentClient  DownloadComplete_Test:vector  ETV
attr source BitTorrentClient_DownloadComplete_Test
attr title "Descargas completas (prueba), vector"
77	44898 67 190 238922961 36001 36303.690785898801 2 36001 36303.690785899 72304.690785899 2614029965.6782
vector 79  BasicTopology.peer[39].bitTorrentApp.bitTorrentClient  DownloadComplete_Test:vector  ETV
attr source BitTorrentClient_DownloadComplete_Test
attr title "Descargas completas (prueba), vector"
79	44965 67 191 194750503 36001 36158.041247983132 2 36001 36158.041247983 72159.041247983 2603475947.8908
vector 81  BasicTopology.peer[40].bitTorrentApp.bitTorrentClient  DownloadComplete_Test:vector  ETV
attr source BitTorrentClient_DownloadComplete_Test
attr title "Descargas completas (prueba), vector"
81	45032 67 192 232610522 36001 36208.335897524694 2 36001 36208.335897525 72209.335897525 2607115589.468
vector 83  BasicTopology.peer[41].bitTorrentApp.bitTorrentClient  DownloadComplete_Test:vector  ETV
attr source BitTorrentClient_DownloadComplete_Test
attr title "Descargas completas (prueba), vector"
83	45099 67 193 217805715 36001 36186.293020703601 2 36001 36186.293020704 72187.293020704 2605519803.5803
vector 85  BasicTopology.peer[42].bitTorrentApp.bitTorrentClient  DownloadComplete_Test:vector  ETV
attr source BitTorrentClient_DownloadComplete_Test
attr title "Descargas completas (prueba), vector"
85	45166 67 194 214650225 36001 36182.405267513075 2 36001 36182.405267513 72183.405267513 2605238451.9426
vector 87  BasicTopology.peer[43].bitTorrentApp.bitTorrentClient  DownloadComplete_Test:vector  ETV
attr source BitTorrentClient_DownloadComplete_Test
attr title "Descargas completas (prueba), vector"
87	45233 67 195 207732681 36001 36173.312433755019 2 36001 36173.312433755 72174.312433755 2604580533.4301
vector 89  BasicTopology.peer[44].bitTorrentApp.bitTorrentClient  DownloadComplete_Test:vector  ETV
attr source BitTorrentClient_DownloadComplete_Test
attr title "Descargas completas (prueba), vector"
89	45300 67 196 216989240 36001 36185.068393608946 2 36001 36185.068393609 72186.068393609 2605431175.6502
vector 91  BasicTopology.peer[45].bitTorrentApp.bitTorrentClient  DownloadComplete_Test:vector  ETV
attr source BitTorrentClient_DownloadComplete_Test
attr title "Descargas completas (prueba), vector"
91	45367 67 197 237703485 36001 36247.222232535414 2 36001 36247.222232535 72248.222232535 2609933120.5748
vector 93  BasicTopology.peer[46].bitTorrentApp.bitTorrentClient  DownloadComplete_Test:vector  ETV
attr source BitTorrentClient_DownloadComplete_Test
attr title "Descargas completas (prueba), vector"
93	45434 65 198 232292146 36001 36207.9719636208 2 36001 36207.971963621 72208.971963621 2607089234.7184
vector 95  BasicTopology.peer[47].bitTorrentApp.bitTorrentClient  DownloadComplete_Test:vector  ETV
attr source BitTorrentClient_DownloadComplete_Test
attr title "Descargas completas (prueba), vector"
95	45499 67 199 224105505 36001 36194.850592277156 2 36001 36194.850592277 72195.850592277 2606139210.3973
vector 97  BasicTopology.peer[48].bitTorrentApp.bitTorrentClient  DownloadComplete_Test:vector  ETV
attr source BitTorrentClient_DownloadComplete_Test
attr title "Descargas completas (prueba), vector"
97	45566 67 200 176159352 36001 36139.825256397607 2 36001 36139.825256398 72140.825256398 2602158970.563
vector 99  BasicTopology.peer[49].bitTorrentApp.bitTorrentClient  DownloadComplete_Test:vector  ETV
attr source BitTorrentClient_DownloadComplete_Test
attr title "Descargas completas (prueba), vector"
99	45633 65 201 233897039 36001 36211.59913025044 2 36001 36211.59913025 72212.59913025 2607351912.5699
vector 1633  BasicTopology.peer[0].bitTorrentApp.bitTorrentClient.contentManager_51  TotalBytesUploaded:vector  ETV
attr source ContentManager_TotalBytesUploaded
attr title "Total of Bytes Uploaded, vector"
attr unit B
1633	45698 23734 1377202 226285703 36002.571186168104 36198.379140656021 583 16384 9551872 2789146624 1.7776280153883e+16
vector 1648  BasicTopology.peer[2].bitTorrentApp.bitTorrentClient.contentManager_51  TotalBytesDownloaded:vector  ETV
attr source ContentManager_TotalBytesDownloaded
attr title "Total of Bytes Downloaded, vector"
attr unit B
1648	88696 8418 1455145 199156935 36002.622141692287 36163.197660936328 208 16384 3407872 356122624 8.1102511695462e+14
vector 1647  BasicTopology.peer[2].bitTorrentApp.bitTorrentClient.contentManager_51  PiecesDownloaded:vector  ETV
attr source ContentManager_PieceDownloaded
attr title "Pieces Downloaded, vector"
1647	87850 846 1709921 78172954 36003.936588079227 36063.955536117416 24 0 23 276 4324
vector 1649  BasicTopology.peer[2].bitTorrentApp.bitTorrentClient.contentManager_51  TotalBytesUploaded:vector  ETV
attr source ContentManager_TotalBytesUploaded
attr title "Total of Bytes Uploaded, vector"
attr unit B
1649	97114 10556 1736733 234407690 36003.98496481716 36212.693828667135 259 16384 4243456 551649280 1.563612372009e+15
vector 1792  BasicTopology.peer[20].bitTorrentApp.bitTorrentClient.contentManager_51  TotalBytesDownloaded:vector  ETV
attr source ContentManager_TotalBytesDownloaded
attr title "Total of Bytes Downloaded, vector"
attr unit B
1792	412647 7855 2982781 219176953 36005.410138304774 36187.994920858807 192 16384 3145728 303562752 6.3827508985856e+14
vector 1808  BasicTopology.peer[22].bitTorrentApp.bitTorrentClient.contentManager_51  TotalBytesDownloaded:vector  ETV
attr source ContentManager_TotalBytesDownloaded
attr title "Total of Bytes Downloaded, vector"
attr unit B
1808	441363 7846 3087998 233655350 36005.655895672821 36210.979278272999 192 16384 3145728 303562752 6.3827508985856e+14
vector 1680  BasicTopology.peer[6].bitTorrentApp.bitTorrentClient.contentManager_51  TotalBytesDownloaded:vector  ETV
attr source ContentManager_TotalBytesDownloaded
attr title "Total of Bytes Downloaded, vector"
attr unit B
1680	167357 8255 3136600 233591194 36005.763828363798 36210.872941583677 201 16384 3293184 332611584 7.3205060049306e+14
vector 1872  BasicTopology.peer[30].bitTorrentApp.bitTorrentClient.contentManager_51  TotalBytesDownloaded:vector  ETV
attr source ContentManager_TotalBytesDownloaded
attr title "Total of Bytes Downloaded, vector"
attr unit B
1872	570863 7782 3226194 195988745 36005.925021568852 36159.385936021214 192 16384 3145728 303562752 6.3827508985856e+14
vector 1968  BasicTopology.peer[42].bitTorrentApp.bitTorrentClient.contentManager_51  TotalBytesDownloaded:vector  ETV
attr source ContentManager_TotalBytesDownloaded
attr title "Total of Bytes Downloaded, vector"
attr unit B
1968	770202 8843 3398611 214650225 36006.121546568598 36182.405267513075 216 16384 3538944 383975424 9.0800869972378e+14
vector 1768  BasicTopology.peer[17].bitTorrentApp.bitTorrentClient.contentManager_51  TotalBytesDownloaded:vector  ETV
attr source ContentManager_TotalBytesDownloaded
attr title "Total of Bytes Downloaded, vector"
attr unit B
1768	365686 7876 3481113 217889475 36006.230274056553 36186.398328778824 192 16384 3145728 303562752 6.3827508985856e+14
vector 1696  BasicTopology.peer[8].bitTorrentApp.bitTorrentClient.contentManager_51  TotalBytesDownloaded:vector  ETV
attr source ContentManager_TotalBytesDownloaded
attr title "Total of Bytes Downloaded, vector"
attr unit B
1696	207036 8628 3520470 209143120 36006.279894310986 36175.309282677797 210 16384 3440640 362987520 8.3458864971776e+14
vector 1767  BasicTopology.peer[17].bitTorrentApp.bitTorrentClient.contentManager_51  PiecesDownloaded:vector  ETV
attr source ContentManager_PieceDownloaded
attr title "Pieces Downloaded, vector"
1767	364822 864 3783639 217889475 36006.73066829105 36186.398328778824 24 0 23 276 4324
vector 1769  BasicTopology.peer[17].bitTorrentApp.bitTorrentClient.contentManager_51  TotalBytesUploaded:vector  ETV
attr source ContentManager_TotalBytesUploaded
attr title "Total of Bytes Uploaded, vector"
attr unit B
1769	373562 11163 3794850 223756452 36006.745301565789 36194.460712081374 272 16384 4456448 608305152 1.8105756758835e+15
vector 1871  BasicTopology.peer[30].bitTorrentApp.bitTorrentClient.contentManager_51  PiecesDownloaded:vector  ETV
attr source ContentManager_PieceDownloaded
attr title "Pieces Downloaded, vector"
1871	570012 851 4127123 195988745 36007.244348965719 36159.385936021214 24 0 23 276 4324
vector 1679  BasicTopology.peer[6].bitTorrentApp.bitTorrentClient.contentManager_51  PiecesDownloaded:vector  ETV
attr source ContentManager_PieceDownloaded
attr title "Pieces Downloaded, vector"
1679	166491 866 4129554 233591194 36007.247051511747 36210.872941583677 24 0 23 276 4324
vector 1681  BasicTopology.peer[6].bitTorrentApp.bitTorrentClient.contentManager_51  TotalBytesUploaded:vector  ETV
attr source ContentManager_TotalBytesUploaded
attr title "Total of Bytes Uploaded, vector"
attr unit B
1681	175612 10840 4155309 237682302 36007.270771529636 36247.181589977111 268 16384 4390912 590577664 1.7320083760087e+15
vector 1873  BasicTopology.peer[30].bitTorrentApp.bitTorrentClient.contentManager_51  TotalBytesUploaded:vector  ETV
attr source ContentManager_TotalBytesUploaded
attr title "Total of Bytes Uploaded, vector"
attr unit B
1873	578645 15298 4169998 201249185 36007.285100711388 36165.473485372565 374 16384 6127616 1148928000 4.699734409216e+15
vector 1664  BasicTopology.peer[4].bitTorrentApp.bitTorrentClient.contentManager_51  TotalBytesDownloaded:vector  ETV
attr source ContentManager_TotalBytesDownloaded
attr title "Total of Bytes Downloaded, vector"
attr unit B
1664	130511 7883 4261218 214250862 36007.43755137482 36181.943684188369 192 16384 3145728 303562752 6.3827508985856e+14
vector 1967  BasicTopology.peer[42].bitTorrentApp.bitTorrentClient.contentManager_51  PiecesDownloaded:vector  ETV
attr source ContentManager_PieceDownloaded
attr title "Pieces Downloaded, vector"
1967	769338 864 4308522 214650225 36007.517746160506 36182.405267513075 24 0 23 276 4324
vector 1969  BasicTopology.peer[42].bitTorrentApp.bitTorrentClient.contentManager_51  TotalBytesUploaded:vector  ETV
attr source ContentManager_TotalBytesUploaded
attr title "Total of Bytes Uploaded, vector"
attr unit B
1969	779045 8464 4363885 171963772 36007.580499499253 36136.174816709405 208 16384 3407872 356122624 8.1102511695462e+14
vector 1807  BasicTopology.peer[22].bitTorrentApp.bitTorrentClient.contentManager_51  PiecesDownloaded:vector  ETV
attr source ContentManager_PieceDownloaded
attr title "Pieces Downloaded, vector"
1807	440502 861 4584473 233655350 36007.898391258275 36210.979278272999 24 0 23 276 4324
vector 1809  BasicTopology.peer[22].bitTorrentApp.bitTorrentClient.contentManager_51  TotalBytesUploaded:vector  ETV
attr source ContentManager_TotalBytesUploaded
attr title "Total of Bytes Uploaded, vector"
attr unit B
1809	449209 11319 4604918 117807643 36007.926396543715 36092.53379368401 280 16384 4587520 644546560 1.9747669069005e+15
vector 1728  BasicTopology.peer[12].bitTorrentApp.bitTorrentClient.contentManager_51  TotalBytesDownloaded:vector  ETV
attr source ContentManager_TotalBytesDownloaded
attr title "Total of Bytes Downloaded, vector"
attr unit B
1728	292519 7974 4658911 226054054 36008.015553296506 36197.98560690412 194 16384 3178496 309903360 6.5837687898112e+14
vector 1776  BasicTopology.peer[18].bitTorrentApp.bitTorrentClient.contentManager_51  TotalBytesDownloaded:vector  ETV
attr source ContentManager_TotalBytesDownloaded
attr title "Total of Bytes Downloaded, vector"
attr unit B
1776	385589 8163 4660759 227573900 36008.019355558064 36200.51108609962 199 16384 3260416 326041600 7.104681213952e+14
vector 1704  BasicTopology.peer[9].bitTorrentApp.bitTorrentClient.contentManager_51  TotalBytesDownloaded:vector  ETV
attr source ContentManager_TotalBytesDownloaded
attr title "Total of Bytes Downloaded, vector"
attr unit B
1704	226237 8141 4764067 234356441 36008.154231319982 36212.394344038189 198 16384 3244032 322781184 6.9983780890214e+14
vector 1727  BasicTopology.peer[12].bitTorrentApp.bitTorrentClient.contentManager_51  PiecesDownloaded:vector  ETV
attr source ContentManager_PieceDownloaded
attr title "Pieces Downloaded, vector"
1727	291653 866 4836228 226054054 36008.247294123245 36197.98560690412 24 0 23 276 4324
vector 1729  BasicTopology.peer[12].bitTorrentApp.bitTorrentClient.contentManager_51  TotalBytesUploaded:vector  ETV
attr source ContentManager_TotalBytesUploaded
attr title "Total of Bytes Uploaded, vector"
attr unit B
1729	300493 16225 4914269 226109662 36008.353644092434 36198.059440722341 394 16384 6455296 1274920960 5.4936242172723e+15
vector 1703  BasicTopology.peer[9].bitTorrentApp.bitTorrentClient.contentManager_51  PiecesDownloaded:vector  ETV
attr source ContentManager_PieceDownloaded
attr title "Pieces Downloaded, vector"
1703	225370 867 4936498 234356441 36008.375620040267 36212.394344038189 24 0 23 276 4324
vector 1705  BasicTopology.peer[9].bitTorrentApp.bitTorrentClient.contentManager_51  TotalBytesUploaded:vector  ETV
attr source ContentManager_TotalBytesUploaded
attr title "Total of Bytes Uploaded, vector"
attr unit B
1705	234378 4780 4983998 113768114 36008.425881543573 36089.696215910644 119 16384 1949696 116981760 1.5269145608192e+14
vector 1744  BasicTopology.peer[14].bitTorrentApp.bitTorrentClient.contentManager_51  TotalBytesDownloaded:vector  ETV
attr source ContentManager_TotalBytesDownloaded
attr title "Total of Bytes Downloaded, vector"
attr unit B
1744	328011 7929 4989473 238948714 36008.430954559697 36303.744098588963 193 16384 3162112 306724864 6.482740421591e+14
vector 1752  BasicTopology.peer[15].bitTorrentApp.bitTorrentClient.contentManager_51  TotalBytesDownloaded:vector  ETV
attr source ContentManager_TotalBytesDownloaded
attr title "Total of Bytes Downloaded, vector"
attr unit B
1752	342987 8399 5353194 237847752 36008.664210589052 36248.37648937681 204 16384 3342336 342589440 7.6523700748288e+14
vector 1672  BasicTopology.peer[5].bitTorrentApp.bitTorrentClient.contentManager_51  TotalBytesDownloaded:vector  ETV
attr source ContentManager_TotalBytesDownloaded
attr title "Total of Bytes Downloaded, vector"
attr unit B
1672	146363 7845 5652791 197252192 36009.110405545013 36160.827376754609 192 16384 3145728 303562752 6.3827508985856e+14
vector 1712  BasicTopology.peer[10].bitTorrentApp.bitTorrentClient.contentManager_51  TotalBytesDownloaded:vector  ETV
attr source ContentManager_TotalBytesDownloaded
attr title "Total of Bytes Downloaded, vector"
attr unit B
1712	240010 7776 5701389 175341780 36009.188569687194 36139.172383739124 192 16384 3145728 303562752 6.3827508985856e+14
vector 1816  BasicTopology.peer[23].bitTorrentApp.bitTorrentClient.contentManager_51  TotalBytesDownloaded:vector  ETV
attr source ContentManager_TotalBytesDownloaded
attr title "Total of Bytes Downloaded, vector"
attr unit B
1816	461395 8550 5816981 219859522 36009.306415589898 36188.817240497231 208 16384 3407872 356122624 8.1102511695462e+14
vector 1832  BasicTopology.peer[25].bitTorrentApp.bitTorrentClient.contentManager_51  TotalBytesDownloaded:vector  ETV
attr source ContentManager_TotalBytesDownloaded
attr title "Total of Bytes Downloaded, vector"
attr unit B
1832	490383 8747 5847010 235505342 36009.33667522148 36220.257332705749 213 16384 3489792 373407744 8.7078287599206e+14
vector 1711  BasicTopology.peer[10].bitTorrentApp.bitTorrentClient.contentManager_51  PiecesDownloaded:vector  ETV
attr source ContentManager_PieceDownloaded
attr title "Pieces Downloaded, vector"
1711	239158 852 5925038 175341780 36009.421929604197 36139.172383739124 24 0 23 276 4324
vector 1713  BasicTopology.peer[10].bitTorrentApp.bitTorrentClient.contentManager_51  TotalBytesUploaded:vector  ETV
attr source ContentManager_TotalBytesUploaded
attr title "Total of Bytes Uploaded, vector"
attr unit B
1713	247786 18932 5961917 229429852 36009.455662643865 36203.56361488576 463 16384 7585792 1759903744 8.9097872489841e+15
vector 1896  BasicTopology.peer[33].bitTorrentApp.bitTorrentClient.contentManager_51  TotalBytesDownloaded:vector  ETV
attr source ContentManager_TotalBytesDownloaded
attr title "Total of Bytes Downloaded, vector"
attr unit B
1896	637302 7898 5978903 234641339 36009.471715454489 36213.146776492082 192 16384 3145728 303562752 6.3827508985856e+14
vector 1743  BasicTopology.peer[14].bitTorrentApp.bitTorrentClient.contentManager_51  PiecesDownloaded:vector  ETV
attr source ContentManager_PieceDownloaded
attr title "Pieces Downloaded, vector"
1743	327144 867 6214413 238948714 36009.738562917784 36303.744098588963 24 0 23 276 4324
vector 1745  BasicTopology.peer[14].bitTorrentApp.bitTorrentClient.contentManager_51  TotalBytesUploaded:vector  ETV
attr source ContentManager_TotalBytesUploaded
attr title "Total of Bytes Uploaded, vector"
attr unit B
1745	335940 6180 6251899 193660987 36009.788785132491 36156.870035055205 151 16384 2473984 188022784 3.1113709459866e+14
vector 1671  BasicTopology.peer[5].bitTorrentApp.bitTorrentClient.contentManager_51  PiecesDownloaded:vector  ETV
attr source ContentManager_PieceDownloaded
attr title "Pieces Downloaded, vector"
1671	145501 862 6811872 197252192 36010.32597893749 36160.827376754609 24 0 23 276 4324
vector 1673  BasicTopology.peer[5].bitTorrentApp.bitTorrentClient.contentManager_51  TotalBytesUploaded:vector  ETV
attr source ContentManager_TotalBytesUploaded
attr title "Total of Bytes Uploaded, vector"
attr unit B
1673	154208 12283 6835649 189806921 36010.351054057824 36152.982464935413 301 16384 4931584 744669184 2.4523326420419e+15
vector 1775  BasicTopology.peer[18].bitTorrentApp.bitTorrentClient.contentManager_51  PiecesDownloaded:vector  ETV
attr source ContentManager_PieceDownloaded
attr title "Pieces Downloaded, vector"
1775	384725 864 6856247 227573900 36010.377188617929 36200.51108609962 24 0 23 276 4324
vector 1736  BasicTopology.peer[13].bitTorrentApp.bitTorrentClient.contentManager_51  TotalBytesDownloaded:vector  ETV
attr source ContentManager_TotalBytesDownloaded
attr title "Total of Bytes Downloaded, vector"
attr unit B
1736	317585 8542 6934170 230719868 36010.462039596824 36205.416676219158 207 16384 3391488 352714752 7.9941152538624e+14