file 890482 1593887688                                          
version 2
run Test-8-20200526-20:42:51-4255
attr configname Test
attr datetime 20200526-20:42:51
attr experiment "\"Simulation Test\""
attr inifile BasicConfig.ini
attr iterationvars ""
attr iterationvars2 $repetition=8
attr measurement "\"Peers: $peers, Rate: $rate\""
attr network BasicTopology
attr processid 4255
attr repetition 8
attr replication #8
attr resultdir results
attr runnumber 8
attr seedset 8
vector 3  BasicTopology.peer[1].bitTorrentApp.bitTorrentClient  DownloadComplete_Test:vector  ETV
attr source BitTorrentClient_DownloadComplete_Test
attr title "Descargas completas (prueba), vector"
3	42439 65 153 232588865 36001 36219.213175968482 2 36001 36219.213175968 72220.213175968 2607903404.0862
vector 5  BasicTopology.peer[2].bitTorrentApp.bitTorrentClient  DownloadComplete_Test:vector  ETV
attr source BitTorrentClient_DownloadComplete_Test
attr title "Descargas completas (prueba), vector"
5	42504 65 154 208346195 36001 36179.467932702093 2 36001 36179.467932702 72180.467932702 2605025900.8934
vector 7  BasicTopology.peer[3].bitTorrentApp.bitTorrentClient  DownloadComplete_Test:vector  ETV
attr source BitTorrentClient_DownloadComplete_Test
attr title "Descargas completas (prueba), vector"
7	42569 65 155 175296581 36001 36146.504852091229 2 36001 36146.504852091 72147.504852091 2602641814.0222
vector 9  BasicTopology.peer[4].bitTorrentApp.bitTorrentClient  DownloadComplete_Test:vector  ETV
attr source BitTorrentClient_DownloadComplete_Test
attr title "Descargas completas (prueba), vector"
9	42634 65 156 213389996 36001 36185.341362666634 2 36001 36185.341362667 72186.341362667 2605450930.5327
vector 11  BasicTopology.peer[5].bitTorrentApp.bitTorrentClient  DownloadComplete_Test:vector  ETV
attr source BitTorrentClient_DownloadComplete_Test
attr title "Descargas completas (prueba), vector"
11	42699 67 157 225384090 36001 36201.911417309341 2 36001 36201.911417309 72202.911417309 2606650391.2667
vector 13  BasicTopology.peer[6].bitTorrentApp.bitTorrentClient  DownloadComplete_Test:vector  ETV
attr source BitTorrentClient_DownloadComplete_Test
attr title "Descargas completas (prueba), vector"
13	42766 67 158 232749720 36001 36219.775746221418 2 36001 36219.775746221 72220.775746221 2607944156.1065
vector 15  BasicTopology.peer[7].bitTorrentApp.bitTorrentClient  DownloadComplete_Test:vector  ETV
attr source BitTorrentClient_DownloadComplete_Test
attr title "Descargas completas (prueba), vector"
15	42833 67 159 194984575 36001 36164.973162387823 2 36001 36164.973162388 72165.973162388 2603977284.8362
vector 17  BasicTopology.peer[8].bitTorrentApp.bitTorrentClient  DownloadComplete_Test:vector  ETV
attr source BitTorrentClient_DownloadComplete_Test
attr title "Descargas completas (prueba), vector"
17	42900 67 160 226260627 36001 36203.741886408141 2 36001 36203.741886408 72204.741886408 2606782927.5777
vector 19  BasicTopology.peer[9].bitTorrentApp.bitTorrentClient  DownloadComplete_Test:vector  ETV
attr source BitTorrentClient_DownloadComplete_Test
attr title "Descargas completas (prueba), vector"
19	42967 66 161 231036431 36001 36214.74972229795 2 36001 36214.749722298 72215.749722298 2607580098.4487
vector 21  BasicTopology.peer[10].bitTorrentApp.bitTorrentClient  DownloadComplete_Test:vector  ETV
attr source BitTorrentClient_DownloadComplete_Test
attr title "Descargas completas (prueba), vector"
21	43033 67 162 234921380 36001 36236.987847158919 2 36001 36236.987847159 72237.987847159 2609191289.2351
vector 23  BasicTopology.peer[11].bitTorrentApp.bitTorrentClient  DownloadComplete_Test:vector  ETV
attr source BitTorrentClient_DownloadComplete_Test
attr title "Descargas completas (prueba), vector"
23	43100 67 163 232027448 36001 36217.694920683792 2 36001 36217.694920684 72218.694920684 2607793426.3677
vector 25  BasicTopology.peer[12].bitTorrentApp.bitTorrentClient  DownloadComplete_Test:vector  ETV
attr source BitTorrentClient_DownloadComplete_Test
attr title "Descargas completas (prueba), vector"
25	43167 66 164 234856177 36001 36236.52613772371 2 36001 36236.526137724 72237.526137724 2609157827.53
vector 27  BasicTopology.peer[13].bitTorrentApp.bitTorrentClient  DownloadComplete_Test:vector  ETV
attr source BitTorrentClient_DownloadComplete_Test
attr title "Descargas completas (prueba), vector"
27	43233 66 165 229413103 36001 36210.00349273763 2 36001 36210.003492738 72211.003492738 2607236353.9441
vector 29  BasicTopology.peer[14].bitTorrentApp.bitTorrentClient  DownloadComplete_Test:vector  ETV
attr source BitTorrentClient_DownloadComplete_Test
attr title "Descargas completas (prueba), vector"
29	43299 66 166 224380446 36001 36200.620784090193 2 36001 36200.62078409 72201.62078409 2606556946.1535
vector 31  BasicTopology.peer[15].bitTorrentApp.bitTorrentClient  DownloadComplete_Test:vector  ETV
attr source BitTorrentClient_DownloadComplete_Test
attr title "Descargas completas (prueba), vector"
31	43365 66 167 225898345 36001 36203.08861070331 2 36001 36203.088610703 72204.088610703 2606735625.9544
vector 33  BasicTopology.peer[16].bitTorrentApp.bitTorrentClient  DownloadComplete_Test:vector  ETV
attr source BitTorrentClient_DownloadComplete_Test
attr title "Descargas completas (prueba), vector"
33	43431 66 168 231782102 36001 36217.234088459889 2 36001 36217.23408846 72218.23408846 2607760046.0183
vector 35  BasicTopology.peer[17].bitTorrentApp.bitTorrentClient  DownloadComplete_Test:vector  ETV
attr source BitTorrentClient_DownloadComplete_Test
attr title "Descargas completas (prueba), vector"
35	43497 66 169 227451245 36001 36205.974282219646 2 36001 36205.97428222 72206.97428222 2606944574.7248
vector 37  BasicTopology.peer[18].bitTorrentApp.bitTorrentClient  DownloadComplete_Test:vector  ETV
attr source BitTorrentClient_DownloadComplete_Test
attr title "Descargas completas (prueba), vector"
37	43563 67 170 199790794 36001 36169.894389235848 2 36001 36169.894389236 72170.894389236 2604333261.1285
vector 39  BasicTopology.peer[19].bitTorrentApp.bitTorrentClient  DownloadComplete_Test:vector  ETV
attr source BitTorrentClient_DownloadComplete_Test
attr title "Descargas completas (prueba), vector"
39	43630 67 171 220443654 36001 36194.250315104419 2 36001 36194.250315104 72195.250315104 2606095756.8724
vector 41  BasicTopology.peer[20].bitTorrentApp.bitTorrentClient  DownloadComplete_Test:vector  ETV
attr source BitTorrentClient_DownloadComplete_Test
attr title "Descargas completas (prueba), vector"
41	43697 66 172 48586566 36001 36046.872436529426 2 36001 36046.872436529 72047.872436529 2595449013.4554
vector 43  BasicTopology.peer[21].bitTorrentApp.bitTorrentClient  DownloadComplete_Test:vector  ETV
attr source BitTorrentClient_DownloadComplete_Test
attr title "Descargas completas (prueba), vector"
43	43763 67 173 234714298 36001 36235.777374231875 2 36001 36235.777374232 72236.777374232 2609103562.9149
vector 45  BasicTopology.peer[22].bitTorrentApp.bitTorrentClient  DownloadComplete_Test:vector  ETV
attr source BitTorrentClient_DownloadComplete_Test
attr title "Descargas completas (prueba), vector"
45	43830 67 174 215397461 36001 36187.502605943068 2 36001 36187.502605943 72188.502605943 2605607345.8551
vector 47  BasicTopology.peer[23].bitTorrentApp.bitTorrentClient  DownloadComplete_Test:vector  ETV
attr source BitTorrentClient_DownloadComplete_Test
attr title "Descargas completas (prueba), vector"
47	43897 67 175 231562249 36001 36216.386883102799 2 36001 36216.386883103 72217.386883103 2607698679.8666
vector 49  BasicTopology.peer[24].bitTorrentApp.bitTorrentClient  DownloadComplete_Test:vector  ETV
attr source BitTorrentClient_DownloadComplete_Test
attr title "Descargas completas (prueba), vector"
49	43964 67 176 230260867 36001 36211.756402378335 2 36001 36211.756402378 72212.756402378 2607363302.7452
vector 51  BasicTopology.peer[25].bitTorrentApp.bitTorrentClient  DownloadComplete_Test:vector  ETV
attr source BitTorrentClient_DownloadComplete_Test
attr title "Descargas completas (prueba), vector"
51	44031 67 177 236330542 36001 36268.197767495098 2 36001 36268.197767495 72269.197767495 2611454170.3021
vector 53  BasicTopology.peer[26].bitTorrentApp.bitTorrentClient  DownloadComplete_Test:vector  ETV
attr source BitTorrentClient_DownloadComplete_Test
attr title "Descargas completas (prueba), vector"
53	44098 67 178 233282407 36001 36223.289943382769 2 36001 36223.289943383 72224.289943383 2608198735.3224
vector 55  BasicTopology.peer[27].bitTorrentApp.bitTorrentClient  DownloadComplete_Test:vector  ETV
attr source BitTorrentClient_DownloadComplete_Test
attr title "Descargas completas (prueba), vector"
55	44165 67 179 202006324 36001 36172.420550266723 2 36001 36172.420550267 72173.420550267 2604516009.4654
vector 57  BasicTopology.peer[28].bitTorrentApp.bitTorrentClient  DownloadComplete_Test:vector  ETV
attr source BitTorrentClient_DownloadComplete_Test
attr title "Descargas completas (prueba), vector"
57	44232 67 180 235297739 36001 36239.088835766671 2 36001 36239.088835767 72240.088835767 2609343560.6466
vector 59  BasicTopology.peer[29].bitTorrentApp.bitTorrentClient  DownloadComplete_Test:vector  ETV
attr source BitTorrentClient_DownloadComplete_Test
attr title "Descargas completas (prueba), vector"
59	44299 67 181 224296705 36001 36200.378439633869 2 36001 36200.378439634 72201.378439634 2606539400.1727
vector 61  BasicTopology.peer[30].bitTorrentApp.bitTorrentClient  DownloadComplete_Test:vector  ETV
attr source BitTorrentClient_DownloadComplete_Test
attr title "Descargas completas (prueba), vector"
61	44366 67 182 220336705 36001 36194.147767338522 2 36001 36194.147767339 72195.147767339 2606088333.604
vector 63  BasicTopology.peer[31].bitTorrentApp.bitTorrentClient  DownloadComplete_Test:vector  ETV
attr source BitTorrentClient_DownloadComplete_Test
attr title "Descargas completas (prueba), vector"
63	44433 67 183 218568918 36001 36191.663284258232 2 36001 36191.663284258 72192.663284258 2605908492.2811
vector 65  BasicTopology.peer[32].bitTorrentApp.bitTorrentClient  DownloadComplete_Test:vector  ETV
attr source BitTorrentClient_DownloadComplete_Test
attr title "Descargas completas (prueba), vector"
65	44500 67 184 190821496 36001 36160.824982478415 2 36001 36160.824982478 72161.824982478 2603677264.4134
vector 67  BasicTopology.peer[33].bitTorrentApp.bitTorrentClient  DownloadComplete_Test:vector  ETV
attr source BitTorrentClient_DownloadComplete_Test
attr title "Descargas completas (prueba), vector"
67	44567 65 185 214851516 36001 36186.95731784017 2 36001 36186.95731784 72187.95731784 2605567880.9232
vector 69  BasicTopology.peer[34].bitTorrentApp.bitTorrentClient  DownloadComplete_Test:vector  ETV
attr source BitTorrentClient_DownloadComplete_Test
attr title "Descargas completas (prueba), vector"
69	44632 67 186 222145153 36001 36196.337082391579 2 36001 36196.337082392 72197.337082392 2606246819.1821
vector 71  BasicTopology.peer[35].bitTorrentApp.bitTorrentClient  DownloadComplete_Test:vector  ETV
attr source BitTorrentClient_DownloadComplete_Test
attr title "Descargas completas (prueba), vector"
71	44699 67 187 224841665 36001 36201.290038455684 2 36001 36201.290038456 72202.290038456 2606605401.4484
vector 73  BasicTopology.peer[36].bitTorrentApp.bitTorrentClient  DownloadComplete_Test:vector  ETV
attr source BitTorrentClient_DownloadComplete_Test
attr title "Descargas completas (prueba), vector"
73	44766 67 188 236507302 36001 36270.341252208132 2 36001 36270.341252208 72271.341252208 2611609655.5516
vector 75  BasicTopology.peer[37].bitTorrentApp.bitTorrentClient  DownloadComplete_Test:vector  ETV
attr source BitTorrentClient_DownloadComplete_Test
attr title "Descargas completas (prueba), vector"
75	44833 67 189 232257621 36001 36218.633162492041 2 36001 36218.633162492 72219.633162492 2607861389.1592
vector 77  BasicTopology.peer[38].bitTorrentApp.bitTorrentClient  DownloadComplete_Test:vector  ETV
attr source BitTorrentClient_DownloadComplete_Test
attr title "Descargas completas (prueba), vector"
77	44900 67 190 203930880 36001 36174.565228722747 2 36001 36174.565228723 72175.565228723 2604671170.4871
vector 79  BasicTopology.peer[39].bitTorrentApp.bitTorrentClient  DownloadComplete_Test:vector  ETV
attr source BitTorrentClient_DownloadComplete_Test
attr title "Descargas completas (prueba), vector"
79	44967 67 191 221765152 36001 36195.811749726744 2 36001 36195.811749727 72196.811749727 2606208789.2217
vector 81  BasicTopology.peer[40].bitTorrentApp.bitTorrentClient  DownloadComplete_Test:vector  ETV
attr source BitTorrentClient_DownloadComplete_Test
attr title "Descargas completas (prueba), vector"
81	45034 67 192 225076724 36001 36201.560396631425 2 36001 36201.560396631 72202.560396631 2606624976.1509
vector 83  BasicTopology.peer[41].bitTorrentApp.bitTorrentClient  DownloadComplete_Test:vector  ETV
attr source BitTorrentClient_DownloadComplete_Test
attr title "Descargas completas (prueba), vector"
83	45101 67 193 213125981 36001 36185.004201386434 2 36001 36185.004201386 72186.004201386 2605426530.0543
vector 85  BasicTopology.peer[42].bitTorrentApp.bitTorrentClient  DownloadComplete_Test:vector  ETV
attr source BitTorrentClient_DownloadComplete_Test
attr title "Descargas completas (prueba), vector"
85	45168 67 194 213822997 36001 36185.776668209304 2 36001 36185.776668209 72186.776668209 2605482434.0815
vector 87  BasicTopology.peer[43].bitTorrentApp.bitTorrentClient  DownloadComplete_Test:vector  ETV
attr source BitTorrentClient_DownloadComplete_Test
attr title "Descargas completas (prueba), vector"
87	45235 67 195 228858275 36001 36208.969981777589 2 36001 36208.969981778 72209.969981778 2607161508.1413
vector 89  BasicTopology.peer[44].bitTorrentApp.bitTorrentClient  DownloadComplete_Test:vector  ETV
attr source BitTorrentClient_DownloadComplete_Test
attr title "Descargas completas (prueba), vector"
89	45302 67 196 211574140 36001 36183.220090224833 2 36001 36183.220090225 72184.220090225 2605297417.0977
vector 91  BasicTopology.peer[45].bitTorrentApp.bitTorrentClient  DownloadComplete_Test:vector  ETV
attr source BitTorrentClient_DownloadComplete_Test
attr title "Descargas completas (prueba), vector"
91	45369 66 197 230944808 36001 36214.09337526514 2 36001 36214.093375265 72215.093375265 2607532559.9924
vector 93  BasicTopology.peer[46].bitTorrentApp.bitTorrentClient  DownloadComplete_Test:vector  ETV
attr source BitTorrentClient_DownloadComplete_Test
attr title "Descargas completas (prueba), vector"
93	45435 67 198 227619698 36001 36206.465210712286 2 36001 36206.465210712 72207.465210712 2606980124.0545
vector 95  BasicTopology.peer[47].bitTorrentApp.bitTorrentClient  DownloadComplete_Test:vector  ETV
attr source BitTorrentClient_DownloadComplete_Test
attr title "Descargas completas (prueba), vector"
95	45502 67 199 236205619 36001 36265.975137977527 2 36001 36265.975137978 72266.975137978 2611292953.7084
vector 97  BasicTopology.peer[48].bitTorrentApp.bitTorrentClient  DownloadComplete_Test:vector  ETV
attr source BitTorrentClient_DownloadComplete_Test
attr title "Descargas completas (prueba), vector"
97	45569 67 200 211676608 36001 36183.320399108674 2 36001 36183.320399109 72184.320399109 2605304676.1046
vector 99  BasicTopology.peer[49].bitTorrentApp.bitTorrentClient  DownloadComplete_Test:vector  ETV
attr source BitTorrentClient_DownloadComplete_Test
attr title "Descargas completas (prueba), vector"
99	45636 67 201 223114572 36001 36197.864196850789 2 36001 36197.864196851 72198.864196851 2606357373.4137
vector 1633  BasicTopology.peer[0].bitTorrentApp.bitTorrentClient.contentManager_51  TotalBytesUploaded:vector  ETV
attr source ContentManager_TotalBytesUploaded
attr title "Total of Bytes Uploaded, vector"
attr unit B
1633	45703 17796 1345733 225672743 36002.561305711267 36202.592038291292 437 16384 7159808 1567997952 7.492939546624e+15
vector 1792  BasicTopology.peer[20].bitTorrentApp.bitTorrentClient.contentManager_51  TotalBytesDownloaded:vector  ETV
attr source ContentManager_TotalBytesDownloaded
attr title "Total of Bytes Downloaded, vector"
attr unit B
1792	411589 7755 1690870 48586566 36003.979069260873 36046.872436529426 192 16384 3145728 303562752 6.3827508985856e+14
vector 1816  BasicTopology.peer[23].bitTorrentApp.bitTorrentClient.contentManager_51  TotalBytesDownloaded:vector  ETV
attr source ContentManager_TotalBytesDownloaded
attr title "Total of Bytes Downloaded, vector"
attr unit B
1816	474536 7877 2649281 231562249 36004.994833005405 36216.386883102799 192 16384 3145728 303562752 6.3827508985856e+14
vector 1791  BasicTopology.peer[20].bitTorrentApp.bitTorrentClient.contentManager_51  PiecesDownloaded:vector  ETV
attr source ContentManager_PieceDownloaded
attr title "Pieces Downloaded, vector"
1791	410743 846 2832423 48586566 36005.255758742215 36046.872436529426 24 0 23 276 4324
vector 1793  BasicTopology.peer[20].bitTorrentApp.bitTorrentClient.contentManager_51  TotalBytesUploaded:vector  ETV
attr source ContentManager_TotalBytesUploaded
attr title "Total of Bytes Uploaded, vector"
attr unit B
1793	419344 16160 2843740 215467359 36005.306819884825 36187.590330488563 397 16384 6504448 1294385152 5.6199096775475e+15
vector 1648  BasicTopology.peer[2].bitTorrentApp.bitTorrentClient.contentManager_51  TotalBytesDownloaded:vector  ETV
attr source ContentManager_TotalBytesDownloaded
attr title "Total of Bytes Downloaded, vector"
attr unit B
1648	86535 7845 3215481 208346195 36006.717080085614 36179.467932702093 192 16384 3145728 303562752 6.3827508985856e+14
vector 1640  BasicTopology.peer[1].bitTorrentApp.bitTorrentClient.contentManager_51  TotalBytesDownloaded:vector  ETV
attr source ContentManager_TotalBytesDownloaded
attr title "Total of Bytes Downloaded, vector"
attr unit B
1640	64360 7861 3288485 232588865 36006.93665824352 36219.213175968482 192 16384 3145728 303562752 6.3827508985856e+14
vector 1688  BasicTopology.peer[7].bitTorrentApp.bitTorrentClient.contentManager_51  TotalBytesDownloaded:vector  ETV
attr source ContentManager_TotalBytesDownloaded
attr title "Total of Bytes Downloaded, vector"
attr unit B
1688	190131 8039 3377276 194984575 36007.051355632977 36164.973162387823 196 16384 3211264 316309504 6.7889635367322e+14
vector 1888  BasicTopology.peer[32].bitTorrentApp.bitTorrentClient.contentManager_51  TotalBytesDownloaded:vector  ETV
attr source ContentManager_TotalBytesDownloaded
attr title "Total of Bytes Downloaded, vector"
attr unit B
1888	619140 8144 3538967 190821496 36007.239591514977 36160.824982478415 198 16384 3244032 322781184 6.9983780890214e+14
vector 1639  BasicTopology.peer[1].bitTorrentApp.bitTorrentClient.contentManager_51  PiecesDownloaded:vector  ETV
attr source ContentManager_PieceDownloaded
attr title "Pieces Downloaded, vector"
1639	63499 861 3553527 232588865 36007.282083913838 36219.213175968482 24 0 23 276 4324
vector 1641  BasicTopology.peer[1].bitTorrentApp.bitTorrentClient.contentManager_51  TotalBytesUploaded:vector  ETV
attr source ContentManager_TotalBytesUploaded
attr title "Total of Bytes Uploaded, vector"
attr unit B
1641	72221 13456 3578306 233063820 36007.371416501578 36222.035319561953 329 16384 5390336 889405440 3.2009867807949e+15
vector 1656  BasicTopology.peer[3].bitTorrentApp.bitTorrentClient.contentManager_51  TotalBytesDownloaded:vector  ETV
attr source ContentManager_TotalBytesDownloaded
attr title "Total of Bytes Downloaded, vector"
attr unit B
1656	108815 7849 3620023 175296581 36007.479076708603 36146.504852091229 192 16384 3145728 303562752 6.3827508985856e+14
vector 1647  BasicTopology.peer[2].bitTorrentApp.bitTorrentClient.contentManager_51  PiecesDownloaded:vector  ETV
attr source ContentManager_PieceDownloaded
attr title "Pieces Downloaded, vector"
1647	85677 858 3872051 208346195 36007.972489624592 36179.467932702093 24 0 23 276 4324
vector 1728  BasicTopology.peer[12].bitTorrentApp.bitTorrentClient.contentManager_51  TotalBytesDownloaded:vector  ETV
attr source ContentManager_TotalBytesDownloaded
attr title "Total of Bytes Downloaded, vector"
attr unit B
1728	293986 8141 3891305 234856177 36008.003959417904 36236.52613772371 198 16384 3244032 322781184 6.9983780890214e+14
vector 1649  BasicTopology.peer[2].bitTorrentApp.bitTorrentClient.contentManager_51  TotalBytesUploaded:vector  ETV
attr source ContentManager_TotalBytesUploaded
attr title "Total of Bytes Uploaded, vector"
attr unit B
1649	94380 13573 3906874 161656754 36008.064768306104 36135.385921422067 333 16384 5455872 911130624 3.3189840279306e+15
vector 1664  BasicTopology.peer[4].bitTorrentApp.bitTorrentClient.contentManager_51  TotalBytesDownloaded:vector  ETV
attr source ContentManager_TotalBytesDownloaded
attr title "Total of Bytes Downloaded, vector"
attr unit B
1664	132002 7876 4395160 213389996 36008.665774430178 36185.341362666634 192 16384 3145728 303562752 6.3827508985856e+14
vector 1655  BasicTopology.peer[3].bitTorrentApp.bitTorrentClient.contentManager_51  PiecesDownloaded:vector  ETV
attr source ContentManager_PieceDownloaded
attr title "Pieces Downloaded, vector"
1655	107953 862 4445275 175296581 36008.801990890294 36146.504852091229 24 0 23 276 4324
vector 1896  BasicTopology.peer[33].bitTorrentApp.bitTorrentClient.contentManager_51  TotalBytesDownloaded:vector  ETV
attr source ContentManager_TotalBytesDownloaded
attr title "Total of Bytes Downloaded, vector"
attr unit B
1896	634320 8204 4451795 214851516 36008.808988263467 36186.95731784017 200 16384 3276800 329318400 7.212055396352e+14
vector 1657  BasicTopology.peer[3].bitTorrentApp.bitTorrentClient.contentManager_51  TotalBytesUploaded:vector  ETV
attr source ContentManager_TotalBytesUploaded
attr title "Total of Bytes Uploaded, vector"
attr unit B
1657	116664 14473 4455485 210035218 36008.813032058619 36181.415665933934 353 16384 5783552 1023688704 3.9526286061732e+15
vector 1832  BasicTopology.peer[25].bitTorrentApp.bitTorrentClient.contentManager_51  TotalBytesDownloaded:vector  ETV
attr source ContentManager_TotalBytesDownloaded
attr title "Total of Bytes Downloaded, vector"
attr unit B
1832	507721 8219 4548434 236330542 36008.941910376772 36268.197767495098 200 16384 3276800 329318400 7.212055396352e+14
vector 1800  BasicTopology.peer[21].bitTorrentApp.bitTorrentClient.contentManager_51  TotalBytesDownloaded:vector  ETV
attr source ContentManager_TotalBytesDownloaded
attr title "Total of Bytes Downloaded, vector"
attr unit B
1800	436369 7898 4666143 234714298 36009.117298016539 36235.777374231875 192 16384 3145728 303562752 6.3827508985856e+14
vector 1815  BasicTopology.peer[23].bitTorrentApp.bitTorrentClient.contentManager_51  PiecesDownloaded:vector  ETV
attr source ContentManager_PieceDownloaded
attr title "Pieces Downloaded, vector"
1815	473672 864 4789713 231562249 36009.382878116056 36216.386883102799 24 0 23 276 4324
vector 1817  BasicTopology.peer[23].bitTorrentApp.bitTorrentClient.contentManager_51  TotalBytesUploaded:vector  ETV
attr source ContentManager_TotalBytesUploaded
attr title "Total of Bytes Uploaded, vector"
attr unit B
1817	482413 13277 4801538 208861183 36009.398521053516 36180.069597542291 324 16384 5308416 862617600 3.0574664220672e+15
vector 1848  BasicTopology.peer[27].bitTorrentApp.bitTorrentClient.contentManager_51  TotalBytesDownloaded:vector  ETV
attr source ContentManager_TotalBytesDownloaded
attr title "Total of Bytes Downloaded, vector"
attr unit B
1848	534885 7879 5060109 202006324 36009.734365366393 36172.420550266723 192 16384 3145728 303562752 6.3827508985856e+14
vector 1672  BasicTopology.peer[5].bitTorrentApp.bitTorrentClient.contentManager_51  TotalBytesDownloaded:vector  ETV
attr source ContentManager_TotalBytesDownloaded
attr title "Total of Bytes Downloaded, vector"
attr unit B
1672	150359 7864 5064354 225384090 36009.742866606233 36201.911417309341 192 16384 3145728 303562752 6.3827508985856e+14
vector 1880  BasicTopology.peer[31].bitTorrentApp.bitTorrentClient.contentManager_51  TotalBytesDownloaded:vector  ETV
attr source ContentManager_TotalBytesDownloaded
attr title "Total of Bytes Downloaded, vector"
attr unit B
1880	594581 8222 5189650 218568918 36009.977444383102 36191.663284258232 200 16384 3276800 329318400 7.212055396352e+14
vector 1760  BasicTopology.peer[16].bitTorrentApp.bitTorrentClient.contentManager_51  TotalBytesDownloaded:vector  ETV
attr source ContentManager_TotalBytesDownloaded
attr title "Total of Bytes Downloaded, vector"
attr unit B
1760	358549 7895 5593675 231782102 36010.241698293678 36217.234088459889 192 16384 3145728 303562752 6.3827508985856e+14
vector 1952  BasicTopology.peer[40].bitTorrentApp.bitTorrentClient.contentManager_51  TotalBytesDownloaded:vector  ETV
attr source ContentManager_TotalBytesDownloaded
attr title "Total of Bytes Downloaded, vector"
attr unit B
1952	734982 8192 5615295 225076724 36010.268077070398 36201.560396631425 200 16384 3276800 329318400 7.212055396352e+14
vector 1744  BasicTopology.peer[14].bitTorrentApp.bitTorrentClient.contentManager_51  TotalBytesDownloaded:vector  ETV
attr source ContentManager_TotalBytesDownloaded
attr title "Total of Bytes Downloaded, vector"
attr unit B
1744	330039 7899 5714937 224380446 36010.459068649996 36200.620784090193 192 16384 3145728 303562752 6.3827508985856e+14
vector 1720  BasicTopology.peer[11].bitTorrentApp.bitTorrentClient.contentManager_51  TotalBytesDownloaded:vector  ETV
attr source ContentManager_TotalBytesDownloaded
attr title "Total of Bytes Downloaded, vector"
attr unit B
1720	275526 8004 5743989 232027448 36010.507130586459 36217.694920683792 195 16384 3194880 313098240 6.6858413719552e+14
vector 1680  BasicTopology.peer[6].bitTorrentApp.bitTorrentClient.contentManager_51  TotalBytesDownloaded:vector  ETV
attr source ContentManager_TotalBytesDownloaded
attr title "Total of Bytes Downloaded, vector"
attr unit B
1680	171546 7872 5874951 232749720 36010.691904279695 36219.775746221418 192 16384 3145728 303562752 6.3827508985856e+14
vector 1704  BasicTopology.peer[9].bitTorrentApp.bitTorrentClient.contentManager_51  TotalBytesDownloaded:vector  ETV
attr source ContentManager_TotalBytesDownloaded
attr title "Total of Bytes Downloaded, vector"
attr unit B
1704	234554 7892 5973180 231036431 36010.836790609209 36214.74972229795 192 16384 3145728 303562752 6.3827508985856e+14
vector 1895  BasicTopology.peer[33].bitTorrentApp.bitTorrentClient.contentManager_51  PiecesDownloaded:vector  ETV
attr source ContentManager_PieceDownloaded
attr title "Pieces Downloaded, vector"
1895	633456 864 6173407 214851516 36011.232575148702 36186.95731784017 24 0 23 276 4324
vector 1847  BasicTopology.peer[27].bitTorrentApp.bitTorrentClient.contentManager_51  PiecesDownloaded:vector  ETV
attr source ContentManager_PieceDownloaded
attr title "Pieces Downloaded, vector"
1847	534021 864 6279943 202006324 36011.324083581511 36172.420550266723 24 0 23 276 4324
vector 1849  BasicTopology.peer[27].bitTorrentApp.bitTorrentClient.contentManager_51  TotalBytesUploaded:vector  ETV
attr source ContentManager_TotalBytesUploaded
attr title "Total of Bytes Uploaded, vector"
attr unit B
1849	542764 3184 6307903 198319020 36011.347734217445 36168.409760343841 80 16384 1310720 53084160 46675557089280
vector 1897  BasicTopology.peer[33].bitTorrentApp.bitTorrentClient.contentManager_51  TotalBytesUploaded:vector  ETV
attr source ContentManager_TotalBytesUploaded
attr title "Total of Bytes Uploaded, vector"
attr unit B
1897	642524 12185 6331339 214934385 36011.369425996682 36187.035581582111 297 16384 4866048 725041152 2.3560163898163e+15
vector 1752  BasicTopology.peer[15].bitTorrentApp.bitTorrentClient.contentManager_51  TotalBytesDownloaded:vector  ETV
attr source ContentManager_TotalBytesDownloaded
attr title "Total of Bytes Downloaded, vector"
attr unit B
1752	348028 7944 6370515 225898345 36011.409420457701 36203.08861070331 193 16384 3162112 306724864 6.482740421591e+14
vector 1696  BasicTopology.peer[8].bitTorrentApp.bitTorrentClient.contentManager_51  TotalBytesDownloaded:vector  ETV
attr source ContentManager_TotalBytesDownloaded
attr title "Total of Bytes Downloaded, vector"
attr unit B
1696	213070 7892 6379013 226260627 36011.416480581189 36203.741886408141 192 16384 3145728 303562752 6.3827508985856e+14
vector 1928  BasicTopology.peer[37].bitTorrentApp.bitTorrentClient.contentManager_51  TotalBytesDownloaded:vector  ETV
attr source ContentManager_TotalBytesDownloaded
attr title "Total of Bytes Downloaded, vector"
attr unit B
1928	690320 7864 6476143 232257621 36011.521611887029 36218.633162492041 192 16384 3145728 303562752 6.3827508985856e+14
vector 1992  BasicTopology.peer[45].bitTorrentApp.bitTorrentClient.contentManager_51  TotalBytesDownloaded:vector  ETV
attr source ContentManager_TotalBytesDownloaded
attr title "Total of Bytes Downloaded, vector"
attr unit B
1992	822373 8044 6574374 230944808 36011.622246124792 36214.09337526514 196 16384 3211264 316309504 6.7889635367322e+14
vector 1920  BasicTopology.peer[36].bitTorrentApp.bitTorrentClient.contentManager_51  TotalBytesDownloaded:vector  ETV
attr source ContentManager_TotalBytesDownloaded
attr title "Total of Bytes Downloaded, vector"
attr unit B
1920	680150 8347 6664778 236507302 36011.736515666462 36270.341252208132 203 16384 3325952 339247104 7.5406579754598e+14
vector 1712  BasicTopology.peer[10].bitTorrentApp.bitTorrentClient.contentManager_51  TotalBytesDownloaded:vector  ETV
attr source ContentManager_TotalBytesDownloaded
attr title "Total of Bytes Downloaded, vector"
attr unit B
1712	250620 8447 6680810 234921380 36011.754950984026 36236.987847158919 206 16384 3375104 349323264 7.879093345321e+14
vector 1951  BasicTopology.peer[40].bitTorrentApp.bitTorrentClient.contentManager_51  PiecesDownloaded:vector  ETV
attr source ContentManager_PieceDownloaded
attr title "Pieces Downloaded, vector"
1951	734120 862 6707664 225076724 36011.787910149698 36201.560396631425 24 0 23 276 4324
vector 1953  BasicTopology.peer[40].bitTorrentApp.bitTorrentClient.contentManager_51  TotalBytesUploaded:vector  ETV