file 898778 1593887688                                          
version 2
run Test-9-20200526-20:42:59-4270
attr configname Test
attr datetime 20200526-20:42:59
attr experiment "\"Simulation Test\""
attr inifile BasicConfig.ini
attr iterationvars ""
attr iterationvars2 $repetition=9
attr measurement "\"Peers: $peers, Rate: $rate\""
attr network BasicTopology
attr processid 4270
attr repetition 9
attr replication #9
attr resultdir results
attr runnumber 9
attr seedset 9
vector 3  BasicTopology.peer[1].bitTorrentApp.bitTorrentClient  DownloadComplete_Test:vector  ETV
attr source BitTorrentClient_DownloadComplete_Test
attr title "Descargas completas (prueba), vector"
3	42439 64 153 230944045 36001 36207.15164202474 2 36001 36207.151642025 72208.151642025 2607029831.0286
vector 5  BasicTopology.peer[2].bitTorrentApp.bitTorrentClient  DownloadComplete_Test:vector  ETV
attr source BitTorrentClient_DownloadComplete_Test
attr title "Descargas completas (prueba), vector"
5	42503 65 154 233803310 36001 36211.084237215771 2 36001 36211.084237216 72212.084237216 2607314622.6348
vector 7  BasicTopology.peer[3].bitTorrentApp.bitTorrentClient  DownloadComplete_Test:vector  ETV
attr source BitTorrentClient_DownloadComplete_Test
attr title "Descargas completas (prueba), vector"
7	42568 64 155 176659345 36001 36147.659650790174 2 36001 36147.65965079 72148.65965079 2602725299.2294
vector 9  BasicTopology.peer[4].bitTorrentApp.bitTorrentClient  DownloadComplete_Test:vector  ETV
attr source BitTorrentClient_DownloadComplete_Test
attr title "Descargas completas (prueba), vector"
9	42632 64 156 216730340 36001 36188.397877760071 2 36001 36188.39787776 72189.39787776 2605672141.9591
vector 11  BasicTopology.peer[5].bitTorrentApp.bitTorrentClient  DownloadComplete_Test:vector  ETV
attr source BitTorrentClient_DownloadComplete_Test
attr title "Descargas completas (prueba), vector"
11	42696 67 157 233923858 36001 36211.250323414646 2 36001 36211.250323415 72212.250323415 2607326650.985
vector 13  BasicTopology.peer[6].bitTorrentApp.bitTorrentClient  DownloadComplete_Test:vector  ETV
attr source BitTorrentClient_DownloadComplete_Test
attr title "Descargas completas (prueba), vector"
13	42763 66 158 240491066 36001 36222.80997676693 2 36001 36222.809976767 72223.809976767 2608163963.613
vector 15  BasicTopology.peer[7].bitTorrentApp.bitTorrentClient  DownloadComplete_Test:vector  ETV
attr source BitTorrentClient_DownloadComplete_Test
attr title "Descargas completas (prueba), vector"
15	42829 67 159 226363402 36001 36200.423732431192 2 36001 36200.423732431 72201.423732431 2606542679.4076
vector 17  BasicTopology.peer[8].bitTorrentApp.bitTorrentClient  DownloadComplete_Test:vector  ETV
attr source BitTorrentClient_DownloadComplete_Test
attr title "Descargas completas (prueba), vector"
17	42896 67 160 215286675 36001 36186.674670513599 2 36001 36186.674670514 72187.674670514 2605547424.7096
vector 19  BasicTopology.peer[9].bitTorrentApp.bitTorrentClient  DownloadComplete_Test:vector  ETV
attr source BitTorrentClient_DownloadComplete_Test
attr title "Descargas completas (prueba), vector"
19	42963 67 161 247780899 36001 36267.072567176293 2 36001 36267.072567176 72268.072567176 2611372553.5928
vector 21  BasicTopology.peer[10].bitTorrentApp.bitTorrentClient  DownloadComplete_Test:vector  ETV
attr source BitTorrentClient_DownloadComplete_Test
attr title "Descargas completas (prueba), vector"
21	43030 66 162 85109988 36001 36075.446034491027 2 36001 36075.446034491 72076.446034491 2597509807.5875
vector 23  BasicTopology.peer[11].bitTorrentApp.bitTorrentClient  DownloadComplete_Test:vector  ETV
attr source BitTorrentClient_DownloadComplete_Test
attr title "Descargas completas (prueba), vector"
23	43096 67 163 204585601 36001 36174.714261227146 2 36001 36174.714261227 72175.714261227 2604681952.8814
vector 25  BasicTopology.peer[12].bitTorrentApp.bitTorrentClient  DownloadComplete_Test:vector  ETV
attr source BitTorrentClient_DownloadComplete_Test
attr title "Descargas completas (prueba), vector"
25	43163 67 164 244558076 36001 36248.164490344344 2 36001 36248.164490344 72249.164490344 2610001429.919
vector 27  BasicTopology.peer[13].bitTorrentApp.bitTorrentClient  DownloadComplete_Test:vector  ETV
attr source BitTorrentClient_DownloadComplete_Test
attr title "Descargas completas (prueba), vector"
27	43230 66 165 239404108 36001 36220.73155889724 2 36001 36220.731558897 72221.731558897 2608013395.6617
vector 29  BasicTopology.peer[14].bitTorrentApp.bitTorrentClient  DownloadComplete_Test:vector  ETV
attr source BitTorrentClient_DownloadComplete_Test
attr title "Descargas completas (prueba), vector"
29	43296 66 166 231807132 36001 36208.226591169722 2 36001 36208.22659117 72209.22659117 2607107673.8775
vector 31  BasicTopology.peer[15].bitTorrentApp.bitTorrentClient  DownloadComplete_Test:vector  ETV
attr source BitTorrentClient_DownloadComplete_Test
attr title "Descargas completas (prueba), vector"
31	43362 67 167 228254863 36001 36203.168005406029 2 36001 36203.168005406 72204.168005406 2606741374.6277
vector 33  BasicTopology.peer[16].bitTorrentApp.bitTorrentClient  DownloadComplete_Test:vector  ETV
attr source BitTorrentClient_DownloadComplete_Test
attr title "Descargas completas (prueba), vector"
33	43429 66 168 232950724 36001 36209.839164380211 2 36001 36209.83916438 72210.83916438 2607224453.3103
vector 35  BasicTopology.peer[17].bitTorrentApp.bitTorrentClient  DownloadComplete_Test:vector  ETV
attr source BitTorrentClient_DownloadComplete_Test
attr title "Descargas completas (prueba), vector"
35	43495 67 169 246025142 36001 36255.973652512542 2 36001 36255.973652513 72256.973652513 2610567626.4917
vector 37  BasicTopology.peer[18].bitTorrentApp.bitTorrentClient  DownloadComplete_Test:vector  ETV
attr source BitTorrentClient_DownloadComplete_Test
attr title "Descargas completas (prueba), vector"
37	43562 66 170 218649602 36001 36190.57636798916 2 36001 36190.576367989 72191.576367989 2605829818.8472
vector 39  BasicTopology.peer[19].bitTorrentApp.bitTorrentClient  DownloadComplete_Test:vector  ETV
attr source BitTorrentClient_DownloadComplete_Test
attr title "Descargas completas (prueba), vector"
39	43628 66 171 235601271 36001 36213.74384208741 2 36001 36213.743842087 72214.743842087 2607507244.0603
vector 41  BasicTopology.peer[20].bitTorrentApp.bitTorrentClient  DownloadComplete_Test:vector  ETV
attr source BitTorrentClient_DownloadComplete_Test
attr title "Descargas completas (prueba), vector"
41	43694 67 172 229265912 36001 36204.716640820787 2 36001 36204.716640821 72205.716640821 2606853508.0421
vector 43  BasicTopology.peer[21].bitTorrentApp.bitTorrentClient  DownloadComplete_Test:vector  ETV
attr source BitTorrentClient_DownloadComplete_Test
attr title "Descargas completas (prueba), vector"
43	43761 67 173 239006261 36001 36219.971128097836 2 36001 36219.971128098 72220.971128098 2607958309.5203
vector 45  BasicTopology.peer[22].bitTorrentApp.bitTorrentClient  DownloadComplete_Test:vector  ETV
attr source BitTorrentClient_DownloadComplete_Test
attr title "Descargas completas (prueba), vector"
45	43828 66 174 244822816 36001 36250.08144243245 2 36001 36250.081442432 72251.081442432 2610140405.583
vector 47  BasicTopology.peer[23].bitTorrentApp.bitTorrentClient  DownloadComplete_Test:vector  ETV
attr source BitTorrentClient_DownloadComplete_Test
attr title "Descargas completas (prueba), vector"
47	43894 67 175 241777601 36001 36226.984970858232 2 36001 36226.984970858 72227.984970858 2608466441.0788
vector 49  BasicTopology.peer[24].bitTorrentApp.bitTorrentClient  DownloadComplete_Test:vector  ETV
attr source BitTorrentClient_DownloadComplete_Test
attr title "Descargas completas (prueba), vector"
49	43961 67 176 247382933 36001 36265.761359247279 2 36001 36265.761359247 72266.761359247 2611277447.9659
vector 51  BasicTopology.peer[25].bitTorrentApp.bitTorrentClient  DownloadComplete_Test:vector  ETV
attr source BitTorrentClient_DownloadComplete_Test
attr title "Descargas completas (prueba), vector"
51	44028 67 177 238180702 36001 36218.365257443067 2 36001 36218.365257443 72219.365257443 2607841982.9216
vector 53  BasicTopology.peer[26].bitTorrentApp.bitTorrentClient  DownloadComplete_Test:vector  ETV
attr source BitTorrentClient_DownloadComplete_Test
attr title "Descargas completas (prueba), vector"
53	44095 67 178 218320236 36001 36190.171662042023 2 36001 36190.171662042 72191.171662042 2605800525.9281
vector 55  BasicTopology.peer[27].bitTorrentApp.bitTorrentClient  DownloadComplete_Test:vector  ETV
attr source BitTorrentClient_DownloadComplete_Test
attr title "Descargas completas (prueba), vector"
55	44162 67 179 240842905 36001 36223.765611296184 2 36001 36223.765611296 72224.765611296 2608233196.0621
vector 57  BasicTopology.peer[28].bitTorrentApp.bitTorrentClient  DownloadComplete_Test:vector  ETV
attr source BitTorrentClient_DownloadComplete_Test
attr title "Descargas completas (prueba), vector"
57	44229 67 180 242379738 36001 36228.838074325436 2 36001 36228.838074325 72229.838074325 2608600709.2157
vector 59  BasicTopology.peer[29].bitTorrentApp.bitTorrentClient  DownloadComplete_Test:vector  ETV
attr source BitTorrentClient_DownloadComplete_Test
attr title "Descargas completas (prueba), vector"
59	44296 67 181 230030240 36001 36205.847795872784 2 36001 36205.847795873 72206.847795873 2606935415.6179
vector 61  BasicTopology.peer[30].bitTorrentApp.bitTorrentClient  DownloadComplete_Test:vector  ETV
attr source BitTorrentClient_DownloadComplete_Test
attr title "Descargas completas (prueba), vector"
61	44363 67 182 221886963 36001 36194.696615478751 2 36001 36194.696615479 72195.696615479 2606128064.0866
vector 63  BasicTopology.peer[31].bitTorrentApp.bitTorrentClient  DownloadComplete_Test:vector  ETV
attr source BitTorrentClient_DownloadComplete_Test
attr title "Descargas completas (prueba), vector"
63	44430 67 183 233742720 36001 36211.008264144518 2 36001 36211.008264145 72212.008264145 2607309120.506
vector 65  BasicTopology.peer[32].bitTorrentApp.bitTorrentClient  DownloadComplete_Test:vector  ETV
attr source BitTorrentClient_DownloadComplete_Test
attr title "Descargas completas (prueba), vector"
65	44497 67 184 226623868 36001 36200.833993535881 2 36001 36200.833993536 72201.833993536 2606572382.8276
vector 67  BasicTopology.peer[33].bitTorrentApp.bitTorrentClient  DownloadComplete_Test:vector  ETV
attr source BitTorrentClient_DownloadComplete_Test
attr title "Descargas completas (prueba), vector"
67	44564 66 185 237235919 36001 36216.61068238904 2 36001 36216.610682389 72217.610682389 2607714890.3197
vector 69  BasicTopology.peer[34].bitTorrentApp.bitTorrentClient  DownloadComplete_Test:vector  ETV
attr source BitTorrentClient_DownloadComplete_Test
attr title "Descargas completas (prueba), vector"
69	44630 67 186 220563978 36001 36192.954923989034 2 36001 36192.954923989 72193.954923989 2606001987.1299
vector 71  BasicTopology.peer[35].bitTorrentApp.bitTorrentClient  DownloadComplete_Test:vector  ETV
attr source BitTorrentClient_DownloadComplete_Test
attr title "Descargas completas (prueba), vector"
71	44697 67 187 223946981 36001 36197.316606183733 2 36001 36197.316606184 72198.316606184 2606317730.4883
vector 73  BasicTopology.peer[36].bitTorrentApp.bitTorrentClient  DownloadComplete_Test:vector  ETV
attr source BitTorrentClient_DownloadComplete_Test
attr title "Descargas completas (prueba), vector"
73	44764 67 188 221489683 36001 36194.124602831053 2 36001 36194.124602831 72195.124602831 2606086656.7653
vector 75  BasicTopology.peer[37].bitTorrentApp.bitTorrentClient  DownloadComplete_Test:vector  ETV
attr source BitTorrentClient_DownloadComplete_Test
attr title "Descargas completas (prueba), vector"
75	44831 66 189 245814335 36001 36255.11371275115 2 36001 36255.113712751 72256.113712751 2610505271.3245
vector 77  BasicTopology.peer[38].bitTorrentApp.bitTorrentClient  DownloadComplete_Test:vector  ETV
attr source BitTorrentClient_DownloadComplete_Test
attr title "Descargas completas (prueba), vector"
77	44897 66 190 245174291 36001 36251.596514180227 2 36001 36251.59651418 72252.59651418 2610250250.8269
vector 79  BasicTopology.peer[39].bitTorrentApp.bitTorrentClient  DownloadComplete_Test:vector  ETV
attr source BitTorrentClient_DownloadComplete_Test
attr title "Descargas completas (prueba), vector"
79	44963 67 191 238106895 36001 36218.234002280792 2 36001 36218.234002281 72219.234002281 2607832475.244
vector 81  BasicTopology.peer[40].bitTorrentApp.bitTorrentClient  DownloadComplete_Test:vector  ETV
attr source BitTorrentClient_DownloadComplete_Test
attr title "Descargas completas (prueba), vector"
81	45030 67 192 238578674 36001 36219.164088673434 2 36001 36219.164088673 72220.164088673 2607899848.2822
vector 83  BasicTopology.peer[41].bitTorrentApp.bitTorrentClient  DownloadComplete_Test:vector  ETV
attr source BitTorrentClient_DownloadComplete_Test
attr title "Descargas completas (prueba), vector"
83	45097 67 193 244369433 36001 36247.749965367475 2 36001 36247.749965367 72248.749965367 2609971378.5518
vector 85  BasicTopology.peer[42].bitTorrentApp.bitTorrentClient  DownloadComplete_Test:vector  ETV
attr source BitTorrentClient_DownloadComplete_Test
attr title "Descargas completas (prueba), vector"
85	45164 67 194 242623843 36001 36229.276248807483 2 36001 36229.276248807 72230.276248807 2608632458.5124
vector 87  BasicTopology.peer[43].bitTorrentApp.bitTorrentClient  DownloadComplete_Test:vector  ETV
attr source BitTorrentClient_DownloadComplete_Test
attr title "Descargas completas (prueba), vector"
87	45231 67 195 196478015 36001 36166.065270544802 2 36001 36166.065270545 72167.065270545 2604056278.1533
vector 89  BasicTopology.peer[44].bitTorrentApp.bitTorrentClient  DownloadComplete_Test:vector  ETV
attr source BitTorrentClient_DownloadComplete_Test
attr title "Descargas completas (prueba), vector"
89	45298 67 196 242740950 36001 36230.328443851238 2 36001 36230.328443851 72231.328443851 2608708700.1493
vector 91  BasicTopology.peer[45].bitTorrentApp.bitTorrentClient  DownloadComplete_Test:vector  ETV
attr source BitTorrentClient_DownloadComplete_Test
attr title "Descargas completas (prueba), vector"
91	45365 67 197 238854635 36001 36219.733959666571 2 36001 36219.733959667 72220.733959667 2607941129.1091
vector 93  BasicTopology.peer[46].bitTorrentApp.bitTorrentClient  DownloadComplete_Test:vector  ETV
attr source BitTorrentClient_DownloadComplete_Test
attr title "Descargas completas (prueba), vector"
93	45432 67 198 228137740 36001 36202.983336835621 2 36001 36202.983336836 72203.983336836 2606728003.4872
vector 95  BasicTopology.peer[47].bitTorrentApp.bitTorrentClient  DownloadComplete_Test:vector  ETV
attr source BitTorrentClient_DownloadComplete_Test
attr title "Descargas completas (prueba), vector"
95	45499 67 199 226442191 36001 36200.538401267273 2 36001 36200.538401267 72201.538401267 2606550981.5416
vector 97  BasicTopology.peer[48].bitTorrentApp.bitTorrentClient  DownloadComplete_Test:vector  ETV
attr source BitTorrentClient_DownloadComplete_Test
attr title "Descargas completas (prueba), vector"
97	45566 65 200 238397958 36001 36218.69983222033 2 36001 36218.69983222 72219.69983222 2607866218.5365
vector 99  BasicTopology.peer[49].bitTorrentApp.bitTorrentClient  DownloadComplete_Test:vector  ETV
attr source BitTorrentClient_DownloadComplete_Test
attr title "Descargas completas (prueba), vector"
99	45631 66 201 246285303 36001 36257.43738675548 2 36001 36257.437386755 72258.437386755 2610673766.8545
vector 1633  BasicTopology.peer[0].bitTorrentApp.bitTorrentClient.contentManager_51  TotalBytesUploaded:vector  ETV
attr source ContentManager_TotalBytesUploaded
attr title "Total of Bytes Uploaded, vector"
attr unit B
1633	45697 15647 1972441 231769350 36004.131252819485 36208.168607415246 384 16384 6291456 1211105280 5.086357969961e+15
vector 1752  BasicTopology.peer[15].bitTorrentApp.bitTorrentClient.contentManager_51  TotalBytesDownloaded:vector  ETV
attr source ContentManager_TotalBytesDownloaded
attr title "Total of Bytes Downloaded, vector"
attr unit B
1752	326508 8874 2769441 228254863 36005.148393957046 36203.168005406029 216 16384 3538944 383975424 9.0800869972378e+14
vector 1751  BasicTopology.peer[15].bitTorrentApp.bitTorrentClient.contentManager_51  PiecesDownloaded:vector  ETV
attr source ContentManager_PieceDownloaded
attr title "Pieces Downloaded, vector"
1751	325643 865 3009067 228254863 36005.614013686941 36203.168005406029 24 0 23 276 4324
vector 1753  BasicTopology.peer[15].bitTorrentApp.bitTorrentClient.contentManager_51  TotalBytesUploaded:vector  ETV
attr source ContentManager_TotalBytesUploaded
attr title "Total of Bytes Uploaded, vector"
attr unit B
1753	335382 11166 3083447 215415929 36005.678804904299 36186.819963041655 275 16384 4505600 621772800 1.8710353936384e+15
vector 1712  BasicTopology.peer[10].bitTorrentApp.bitTorrentClient.contentManager_51  TotalBytesDownloaded:vector  ETV
attr source ContentManager_TotalBytesDownloaded
attr title "Total of Bytes Downloaded, vector"
attr unit B
1712	222861 7762 3152808 85109988 36005.773925669148 36075.446034491027 192 16384 3145728 303562752 6.3827508985856e+14
vector 1808  BasicTopology.peer[22].bitTorrentApp.bitTorrentClient.contentManager_51  TotalBytesDownloaded:vector  ETV
attr source ContentManager_TotalBytesDownloaded
attr title "Total of Bytes Downloaded, vector"
attr unit B
1808	453217 8546 3272984 244822816 36006.29673886218 36250.08144243245 208 16384 3407872 356122624 8.1102511695462e+14
vector 1711  BasicTopology.peer[10].bitTorrentApp.bitTorrentClient.contentManager_51  PiecesDownloaded:vector  ETV
attr source ContentManager_PieceDownloaded
attr title "Pieces Downloaded, vector"
1711	222010 851 3425210 85109988 36007.02139416836 36075.446034491027 24 0 23 276 4324
vector 1664  BasicTopology.peer[4].bitTorrentApp.bitTorrentClient.contentManager_51  TotalBytesDownloaded:vector  ETV
attr source ContentManager_TotalBytesDownloaded
attr title "Total of Bytes Downloaded, vector"
attr unit B
1664	121141 8046 3522010 216730340 36007.083643874326 36188.397877760071 196 16384 3211264 316309504 6.7889635367322e+14
vector 1713  BasicTopology.peer[10].bitTorrentApp.bitTorrentClient.contentManager_51  TotalBytesUploaded:vector  ETV
attr source ContentManager_TotalBytesUploaded
attr title "Total of Bytes Uploaded, vector"
attr unit B
1713	230623 16765 3570507 174225205 36007.122082325052 36145.642287771076 409 16384 6701056 1373716480 6.1444030306714e+15
vector 1768  BasicTopology.peer[17].bitTorrentApp.bitTorrentClient.contentManager_51  TotalBytesDownloaded:vector  ETV
attr source ContentManager_TotalBytesDownloaded
attr title "Total of Bytes Downloaded, vector"
attr unit B
1768	363674 7894 3641618 246025142 36007.185160065262 36255.973652512542 192 16384 3145728 303562752 6.3827508985856e+14
vector 1800  BasicTopology.peer[21].bitTorrentApp.bitTorrentClient.contentManager_51  TotalBytesDownloaded:vector  ETV
attr source ContentManager_TotalBytesDownloaded
attr title "Total of Bytes Downloaded, vector"
attr unit B
1800	432867 7868 3644640 239006261 36007.187932250743 36219.971128097836 192 16384 3145728 303562752 6.3827508985856e+14
vector 1767  BasicTopology.peer[17].bitTorrentApp.bitTorrentClient.contentManager_51  PiecesDownloaded:vector  ETV
attr source ContentManager_PieceDownloaded
attr title "Pieces Downloaded, vector"
1767	362809 865 3766268 246025142 36007.42904816219 36255.973652512542 24 0 23 276 4324
vector 1769  BasicTopology.peer[17].bitTorrentApp.bitTorrentClient.contentManager_51  TotalBytesUploaded:vector  ETV
attr source ContentManager_TotalBytesUploaded
attr title "Total of Bytes Uploaded, vector"
attr unit B
1769	371568 6530 3814434 241128143 36007.481936091022 36224.917454742716 162 16384 2654208 216317952 3.839499436032e+14
vector 1807  BasicTopology.peer[22].bitTorrentApp.bitTorrentClient.contentManager_51  PiecesDownloaded:vector  ETV
attr source ContentManager_PieceDownloaded
attr title "Pieces Downloaded, vector"
1807	452353 864 3861859 244822816 36007.54219864923 36250.08144243245 24 0 23 276 4324
vector 1809  BasicTopology.peer[22].bitTorrentApp.bitTorrentClient.contentManager_51  TotalBytesUploaded:vector  ETV
attr source ContentManager_TotalBytesUploaded
attr title "Total of Bytes Uploaded, vector"
attr unit B
1809	461763 10232 3926435 245504826 36007.622506130378 36254.608276520528 252 16384 4128768 522289152 1.4404595535053e+15
vector 1720  BasicTopology.peer[11].bitTorrentApp.bitTorrentClient.contentManager_51  TotalBytesDownloaded:vector  ETV
attr source ContentManager_TotalBytesDownloaded
attr title "Total of Bytes Downloaded, vector"
attr unit B
1720	248247 7837 4026615 204585601 36007.728788825664 36174.714261227146 192 16384 3145728 303562752 6.3827508985856e+14
vector 1688  BasicTopology.peer[7].bitTorrentApp.bitTorrentClient.contentManager_51  TotalBytesDownloaded:vector  ETV
attr source ContentManager_TotalBytesDownloaded
attr title "Total of Bytes Downloaded, vector"
attr unit B
1688	165841 7870 4069018 226363402 36007.792889334595 36200.423732431192 192 16384 3145728 303562752 6.3827508985856e+14
vector 1663  BasicTopology.peer[4].bitTorrentApp.bitTorrentClient.contentManager_51  PiecesDownloaded:vector  ETV
attr source ContentManager_PieceDownloaded
attr title "Pieces Downloaded, vector"
1663	120278 863 4219323 216730340 36008.227517101831 36188.397877760071 24 0 23 276 4324
vector 1888  BasicTopology.peer[32].bitTorrentApp.bitTorrentClient.contentManager_51  TotalBytesDownloaded:vector  ETV
attr source ContentManager_TotalBytesDownloaded
attr title "Total of Bytes Downloaded, vector"
attr unit B
1888	609309 8207 4249512 226623868 36008.258569917667 36200.833993535881 200 16384 3276800 329318400 7.212055396352e+14
vector 1665  BasicTopology.peer[4].bitTorrentApp.bitTorrentClient.contentManager_51  TotalBytesUploaded:vector  ETV
attr source ContentManager_TotalBytesUploaded
attr title "Total of Bytes Uploaded, vector"
attr unit B
1665	129187 6002 4257840 217686054 36008.272151114184 36189.440804346428 149 16384 2441216 183091200 2.989767000064e+14
vector 1744  BasicTopology.peer[14].bitTorrentApp.bitTorrentClient.contentManager_51  TotalBytesDownloaded:vector  ETV
attr source ContentManager_TotalBytesDownloaded
attr title "Total of Bytes Downloaded, vector"
attr unit B
1744	310858 7882 4273063 231807132 36008.293407878275 36208.226591169722 192 16384 3145728 303562752 6.3827508985856e+14
vector 1656  BasicTopology.peer[3].bitTorrentApp.bitTorrentClient.contentManager_51  TotalBytesDownloaded:vector  ETV
attr source ContentManager_TotalBytesDownloaded
attr title "Total of Bytes Downloaded, vector"
attr unit B
1656	100370 7855 4666440 176659345 36008.729085980295 36147.659650790174 192 16384 3145728 303562752 6.3827508985856e+14
vector 1784  BasicTopology.peer[19].bitTorrentApp.bitTorrentClient.contentManager_51  TotalBytesDownloaded:vector  ETV
attr source ContentManager_TotalBytesDownloaded
attr title "Total of Bytes Downloaded, vector"
attr unit B
1784	394034 7906 4725839 235601271 36008.889388795108 36213.74384208741 192 16384 3145728 303562752 6.3827508985856e+14
vector 1655  BasicTopology.peer[3].bitTorrentApp.bitTorrentClient.contentManager_51  PiecesDownloaded:vector  ETV
attr source ContentManager_PieceDownloaded
attr title "Pieces Downloaded, vector"
1655	99511 859 4773099 176659345 36008.951546354013 36147.659650790174 24 0 23 276 4324
vector 1657  BasicTopology.peer[3].bitTorrentApp.bitTorrentClient.contentManager_51  TotalBytesUploaded:vector  ETV
attr source ContentManager_TotalBytesUploaded
attr title "Total of Bytes Uploaded, vector"
attr unit B
1657	108225 12053 4810782 187616846 36009.000297590214 36157.486633943225 294 16384 4816896 710492160 2.2854581302067e+15
vector 1848  BasicTopology.peer[27].bitTorrentApp.bitTorrentClient.contentManager_51  TotalBytesDownloaded:vector  ETV
attr source ContentManager_TotalBytesDownloaded
attr title "Total of Bytes Downloaded, vector"
attr unit B
1848	524270 8903 4855670 240842905 36009.054306733349 36223.765611296184 216 16384 3538944 383975424 9.0800869972378e+14
vector 1719  BasicTopology.peer[11].bitTorrentApp.bitTorrentClient.contentManager_51  PiecesDownloaded:vector  ETV
attr source ContentManager_PieceDownloaded
attr title "Pieces Downloaded, vector"
1719	247388 859 4942990 204585601 36009.199991517937 36174.714261227146 24 0 23 276 4324
vector 1721  BasicTopology.peer[11].bitTorrentApp.bitTorrentClient.contentManager_51  TotalBytesUploaded:vector  ETV
attr source ContentManager_TotalBytesUploaded
attr title "Total of Bytes Uploaded, vector"
attr unit B
1721	256084 22288 4964688 222386856 36009.236760498987 36195.312945597184 543 16384 8896512 2419851264 1.4365372819964e+16
vector 1672  BasicTopology.peer[5].bitTorrentApp.bitTorrentClient.contentManager_51  TotalBytesDownloaded:vector  ETV
attr source ContentManager_TotalBytesDownloaded
attr title "Total of Bytes Downloaded, vector"
attr unit B
1672	136055 7885 5005298 233923858 36009.302668469377 36211.250323414646 192 16384 3145728 303562752 6.3827508985856e+14
vector 1640  BasicTopology.peer[1].bitTorrentApp.bitTorrentClient.contentManager_51  TotalBytesDownloaded:vector  ETV
attr source ContentManager_TotalBytesDownloaded
attr title "Total of Bytes Downloaded, vector"
attr unit B
1640	62201 7843 5102372 230944045 36009.422067387432 36207.15164202474 192 16384 3145728 303562752 6.3827508985856e+14
vector 1648  BasicTopology.peer[2].bitTorrentApp.bitTorrentClient.contentManager_51  TotalBytesDownloaded:vector  ETV
attr source ContentManager_TotalBytesDownloaded
attr title "Total of Bytes Downloaded, vector"
attr unit B
1648	84506 7865 5147178 233803310 36009.477131926752 36211.084237215771 192 16384 3145728 303562752 6.3827508985856e+14
vector 1816  BasicTopology.peer[23].bitTorrentApp.bitTorrentClient.contentManager_51  TotalBytesDownloaded:vector  ETV
attr source ContentManager_TotalBytesDownloaded
attr title "Total of Bytes Downloaded, vector"
attr unit B
1816	472864 7885 5188876 241777601 36009.537157816749 36226.984970858232 192 16384 3145728 303562752 6.3827508985856e+14
vector 1687  BasicTopology.peer[7].bitTorrentApp.bitTorrentClient.contentManager_51  PiecesDownloaded:vector  ETV
attr source ContentManager_PieceDownloaded
attr title "Pieces Downloaded, vector"
1687	164981 860 5313751 226363402 36009.696863566705 36200.423732431192 24 0 23 276 4324
vector 1689  BasicTopology.peer[7].bitTorrentApp.bitTorrentClient.contentManager_51  TotalBytesUploaded:vector  ETV
attr source ContentManager_TotalBytesUploaded
attr title "Total of Bytes Uploaded, vector"
attr unit B
1689	173711 12905 5327617 181296598 36009.709780265898 36151.664745285044 315 16384 5160960 815431680 2.8100601996902e+15
vector 1728  BasicTopology.peer[12].bitTorrentApp.bitTorrentClient.contentManager_51  TotalBytesDownloaded:vector  ETV
attr source ContentManager_TotalBytesDownloaded
attr title "Total of Bytes Downloaded, vector"
attr unit B
1728	279242 7933 5335981 244558076 36009.718134569877 36248.164490344344 192 16384 3145728 303562752 6.3827508985856e+14
vector 1840  BasicTopology.peer[26].bitTorrentApp.bitTorrentClient.contentManager_51  TotalBytesDownloaded:vector  ETV
attr source ContentManager_TotalBytesDownloaded
attr title "Total of Bytes Downloaded, vector"
attr unit B
1840	514203 7904 5346417 218320236 36009.726695771462 36190.171662042023 192 16384 3145728 303562752 6.3827508985856e+14
vector 1776  BasicTopology.peer[18].bitTorrentApp.bitTorrentClient.contentManager_51  TotalBytesDownloaded:vector  ETV
attr source ContentManager_TotalBytesDownloaded
attr title "Total of Bytes Downloaded, vector"
attr unit B
1776	378963 7901 5353374 218649602 36009.733249181273 36190.57636798916 192 16384 3145728 303562752 6.3827508985856e+14
vector 1824  BasicTopology.peer[24].bitTorrentApp.bitTorrentClient.contentManager_51  TotalBytesDownloaded:vector  ETV
attr source ContentManager_TotalBytesDownloaded
attr title "Total of Bytes Downloaded, vector"
attr unit B
1824	491107 8184 5418242 247382933 36009.799433138223 36265.761359247279 199 16384 3260416 326041600 7.104681213952e+14
vector 1696  BasicTopology.peer[8].bitTorrentApp.bitTorrentClient.contentManager_51  TotalBytesDownloaded:vector  ETV
attr source ContentManager_TotalBytesDownloaded
attr title "Total of Bytes Downloaded, vector"
attr unit B
1696	187482 8552 5525413 222634855 36009.952387187748 36195.652571443614 208 16384 3407872 356122624 8.1102511695462e+14
vector 1832  BasicTopology.peer[25].bitTorrentApp.bitTorrentClient.contentManager_51  TotalBytesDownloaded:vector  ETV
attr source ContentManager_TotalBytesDownloaded
attr title "Total of Bytes Downloaded, vector"
attr unit B
1832	503610 8503 5900462 238180702 36010.206232861657 36218.365257443067 207 16384 3391488 352714752 7.9941152538624e+14
vector 1799  BasicTopology.peer[21].bitTorrentApp.bitTorrentClient.contentManager_51  PiecesDownloaded:vector  ETV
attr source ContentManager_PieceDownloaded
attr title "Pieces Downloaded, vector"
1799	432002 865 6025741 239006261 36010.368472571617 36219.971128097836 24 0 23 276 4324
vector 1801  BasicTopology.peer[21].bitTorrentApp.bitTorrentClient.contentManager_51  TotalBytesUploaded:vector  ETV
attr source ContentManager_TotalBytesUploaded
attr title "Total of Bytes Uploaded, vector"
attr unit B
1801	440735 11618 6041671 230712841 36010.38337785318 36206.82904821218 284 16384 4653056 663060480 2.0604595575194e+15
vector 1671  BasicTopology.peer[5].bitTorrentApp.bitTorrentClient.contentManager_51  PiecesDownloaded:vector  ETV
attr source ContentManager_PieceDownloaded
attr title "Pieces Downloaded, vector"
1671	135189 866 6198854 233923858 36010.570762488915 36211.250323414646 24 0 23 276 4324
vector 1673  BasicTopology.peer[5].bitTorrentApp.bitTorrentClient.contentManager_51  TotalBytesUploaded:vector  ETV
attr source ContentManager_TotalBytesUploaded
attr title "Total of Bytes Uploaded, vector"
attr unit B