file 468990 1593887682                                          
version 2
run Test-0-20200525-12:22:20-6502
attr configname Test
attr datetime 20200525-12:22:20
attr experiment "\"Simulation Test\""
attr inifile BasicConfig.ini
attr iterationvars ""
attr iterationvars2 $repetition=0
attr measurement "\"Peers: $peers, Rate: $rate\""
attr network BasicTopology
attr processid 6502
attr repetition 0
attr replication #0
attr resultdir results
attr runnumber 0
attr seedset 0
vector 3  BasicTopology.peer[1].bitTorrentApp.bitTorrentClient  DownloadComplete_Test:vector  ETV
attr source BitTorrentClient_DownloadComplete_Test
attr title "Descargas completas (prueba), vector"
3	41770 64 135 24810180 36001 36031.683510196271 2 36001 36031.683510196 72032.683510196 2594354217.5789
vector 5  BasicTopology.peer[2].bitTorrentApp.bitTorrentClient  DownloadComplete_Test:vector  ETV
attr source BitTorrentClient_DownloadComplete_Test
attr title "Descargas completas (prueba), vector"
5	41834 65 136 161883624 36001 36149.462617702158 2 36001 36149.462617702 72150.462617702 2602855648.5486
vector 7  BasicTopology.peer[3].bitTorrentApp.bitTorrentClient  DownloadComplete_Test:vector  ETV
attr source BitTorrentClient_DownloadComplete_Test
attr title "Descargas completas (prueba), vector"
7	41899 64 137 142116833 36001 36129.92509256859 2 36001 36129.925092569 72130.925092569 2601443488.1946
vector 9  BasicTopology.peer[4].bitTorrentApp.bitTorrentClient  DownloadComplete_Test:vector  ETV
attr source BitTorrentClient_DownloadComplete_Test
attr title "Descargas completas (prueba), vector"
9	41963 65 138 206580619 36001 36200.356907257655 2 36001 36200.356907258 72201.356907258 2606537841.2129
vector 11  BasicTopology.peer[5].bitTorrentApp.bitTorrentClient  DownloadComplete_Test:vector  ETV
attr source BitTorrentClient_DownloadComplete_Test
attr title "Descargas completas (prueba), vector"
11	42028 67 139 189966152 36001 36179.411309476639 2 36001 36179.411309477 72180.411309477 2605021803.7003
vector 13  BasicTopology.peer[6].bitTorrentApp.bitTorrentClient  DownloadComplete_Test:vector  ETV
attr source BitTorrentClient_DownloadComplete_Test
attr title "Descargas completas (prueba), vector"
13	42095 67 140 227171176 36001 36229.511682195736 2 36001 36229.511682196 72230.511682196 2608649517.7304
vector 15  BasicTopology.peer[7].bitTorrentApp.bitTorrentClient  DownloadComplete_Test:vector  ETV
attr source BitTorrentClient_DownloadComplete_Test
attr title "Descargas completas (prueba), vector"
15	42162 66 141 179315438 36001 36167.405344290366 2 36001 36167.40534429 72168.40534429 2604153210.3382
vector 17  BasicTopology.peer[8].bitTorrentApp.bitTorrentClient  DownloadComplete_Test:vector  ETV
attr source BitTorrentClient_DownloadComplete_Test
attr title "Descargas completas (prueba), vector"
17	42228 67 142 225502053 36001 36226.898346338502 2 36001 36226.898346339 72227.898346339 2608460164.796
vector 19  BasicTopology.peer[9].bitTorrentApp.bitTorrentClient  DownloadComplete_Test:vector  ETV
attr source BitTorrentClient_DownloadComplete_Test
attr title "Descargas completas (prueba), vector"
19	42295 67 143 217967106 36001 36215.466689157934 2 36001 36215.466689158 72216.466689158 2607632028.5135
vector 21  BasicTopology.peer[10].bitTorrentApp.bitTorrentClient  DownloadComplete_Test:vector  ETV
attr source BitTorrentClient_DownloadComplete_Test
attr title "Descargas completas (prueba), vector"
21	42362 67 144 221827428 36001 36221.338050858641 2 36001 36221.338050859 72222.338050859 2608057331.1946
vector 23  BasicTopology.peer[11].bitTorrentApp.bitTorrentClient  DownloadComplete_Test:vector  ETV
attr source BitTorrentClient_DownloadComplete_Test
attr title "Descargas completas (prueba), vector"
23	42429 66 145 230361406 36001 36235.92907650847 2 36001 36235.929076508 72236.929076508 2609114557.0377
vector 25  BasicTopology.peer[12].bitTorrentApp.bitTorrentClient  DownloadComplete_Test:vector  ETV
attr source BitTorrentClient_DownloadComplete_Test
attr title "Descargas completas (prueba), vector"
25	42495 67 146 223099836 36001 36223.215620907575 2 36001 36223.215620908 72224.215620908 2608193350.9188
vector 27  BasicTopology.peer[13].bitTorrentApp.bitTorrentClient  DownloadComplete_Test:vector  ETV
attr source BitTorrentClient_DownloadComplete_Test
attr title "Descargas completas (prueba), vector"
27	42562 67 147 215849583 36001 36212.483263658427 2 36001 36212.483263658 72213.483263658 2607415945.1207
vector 29  BasicTopology.peer[14].bitTorrentApp.bitTorrentClient  DownloadComplete_Test:vector  ETV
attr source BitTorrentClient_DownloadComplete_Test
attr title "Descargas completas (prueba), vector"
29	42629 67 148 223326652 36001 36223.588167516744 2 36001 36223.588167517 72224.588167517 2608220340.7299
vector 31  BasicTopology.peer[15].bitTorrentApp.bitTorrentClient  DownloadComplete_Test:vector  ETV
attr source BitTorrentClient_DownloadComplete_Test
attr title "Descargas completas (prueba), vector"
31	42696 66 149 184404067 36001 36173.11838542474 2 36001 36173.118385425 72174.118385425 2604566494.726
vector 33  BasicTopology.peer[16].bitTorrentApp.bitTorrentClient  DownloadComplete_Test:vector  ETV
attr source BitTorrentClient_DownloadComplete_Test
attr title "Descargas completas (prueba), vector"
33	42762 67 150 188506835 36001 36177.896403564438 2 36001 36177.896403564 72178.896403564 2604912189.187
vector 35  BasicTopology.peer[17].bitTorrentApp.bitTorrentClient  DownloadComplete_Test:vector  ETV
attr source BitTorrentClient_DownloadComplete_Test
attr title "Descargas completas (prueba), vector"
35	42829 67 151 216437652 36001 36213.276066422273 2 36001 36213.276066422 72214.276066422 2607473364.4629
vector 37  BasicTopology.peer[18].bitTorrentApp.bitTorrentClient  DownloadComplete_Test:vector  ETV
attr source BitTorrentClient_DownloadComplete_Test
attr title "Descargas completas (prueba), vector"
37	42896 67 152 197851877 36001 36189.294996853171 2 36001 36189.294996853 72190.294996853 2605737073.3692
vector 39  BasicTopology.peer[19].bitTorrentApp.bitTorrentClient  DownloadComplete_Test:vector  ETV
attr source BitTorrentClient_DownloadComplete_Test
attr title "Descargas completas (prueba), vector"
39	42963 67 153 157634941 36001 36145.086473662027 2 36001 36145.086473662 72146.086473662 2602539277.1885
vector 41  BasicTopology.peer[20].bitTorrentApp.bitTorrentClient  DownloadComplete_Test:vector  ETV
attr source BitTorrentClient_DownloadComplete_Test
attr title "Descargas completas (prueba), vector"
41	43030 67 154 224676873 36001 36225.630688852467 2 36001 36225.630688852 72226.630688852 2608368319.8051
vector 43  BasicTopology.peer[21].bitTorrentApp.bitTorrentClient  DownloadComplete_Test:vector  ETV
attr source BitTorrentClient_DownloadComplete_Test
attr title "Descargas completas (prueba), vector"
43	43097 67 155 126471396 36001 36116.269174426207 2 36001 36116.269174426 72117.269174426 2600456900.0796
vector 45  BasicTopology.peer[22].bitTorrentApp.bitTorrentClient  DownloadComplete_Test:vector  ETV
attr source BitTorrentClient_DownloadComplete_Test
attr title "Descargas completas (prueba), vector"
45	43164 67 156 156454415 36001 36143.952659378261 2 36001 36143.952659378 72144.952659378 2602457314.8434
vector 47  BasicTopology.peer[23].bitTorrentApp.bitTorrentClient  DownloadComplete_Test:vector  ETV
attr source BitTorrentClient_DownloadComplete_Test
attr title "Descargas completas (prueba), vector"
47	43231 67 157 218846229 36001 36216.693578121178 2 36001 36216.693578121 72217.693578121 2607720894.7315
vector 49  BasicTopology.peer[24].bitTorrentApp.bitTorrentClient  DownloadComplete_Test:vector  ETV
attr source BitTorrentClient_DownloadComplete_Test
attr title "Descargas completas (prueba), vector"
49	43298 67 158 212436485 36001 36207.849189722243 2 36001 36207.849189722 72208.849189722 2607080343.9457
vector 51  BasicTopology.peer[25].bitTorrentApp.bitTorrentClient  DownloadComplete_Test:vector  ETV
attr source BitTorrentClient_DownloadComplete_Test
attr title "Descargas completas (prueba), vector"
51	43365 67 159 213218985 36001 36208.842545402674 2 36001 36208.842545403 72209.842545403 2607152279.4778
vector 53  BasicTopology.peer[26].bitTorrentApp.bitTorrentClient  DownloadComplete_Test:vector  ETV
attr source BitTorrentClient_DownloadComplete_Test
attr title "Descargas completas (prueba), vector"
53	43432 67 160 214813842 36001 36211.250213328347 2 36001 36211.250213328 72212.250213328 2607326643.0122
vector 55  BasicTopology.peer[27].bitTorrentApp.bitTorrentClient  DownloadComplete_Test:vector  ETV
attr source BitTorrentClient_DownloadComplete_Test
attr title "Descargas completas (prueba), vector"
55	43499 67 161 224601653 36001 36225.530151119464 2 36001 36225.530151119 72226.530151119 2608361035.7296
vector 57  BasicTopology.peer[28].bitTorrentApp.bitTorrentClient  DownloadComplete_Test:vector  ETV
attr source BitTorrentClient_DownloadComplete_Test
attr title "Descargas completas (prueba), vector"
57	43566 67 162 209401875 36001 36204.229044462419 2 36001 36204.229044462 72205.229044462 2606818201.7039
vector 59  BasicTopology.peer[29].bitTorrentApp.bitTorrentClient  DownloadComplete_Test:vector  ETV
attr source BitTorrentClient_DownloadComplete_Test
attr title "Descargas completas (prueba), vector"
59	43633 67 163 218935522 36001 36216.866156988876 2 36001 36216.866156989 72217.866156989 2607733395.2333
vector 61  BasicTopology.peer[30].bitTorrentApp.bitTorrentClient  DownloadComplete_Test:vector  ETV
attr source BitTorrentClient_DownloadComplete_Test
attr title "Descargas completas (prueba), vector"
61	43700 67 164 111297548 36001 36104.158361768428 2 36001 36104.158361768 72105.158361768 2599582252.0116
vector 63  BasicTopology.peer[31].bitTorrentApp.bitTorrentClient  DownloadComplete_Test:vector  ETV
attr source BitTorrentClient_DownloadComplete_Test
attr title "Descargas completas (prueba), vector"
63	43767 66 165 214728848 36001 36211.12311171704 2 36001 36211.123111717 72212.123111717 2607317438.0119
vector 65  BasicTopology.peer[32].bitTorrentApp.bitTorrentClient  DownloadComplete_Test:vector  ETV
attr source BitTorrentClient_DownloadComplete_Test
attr title "Descargas completas (prueba), vector"
65	43833 67 166 218421267 36001 36216.209400313508 2 36001 36216.209400314 72217.209400314 2607685824.3274
vector 67  BasicTopology.peer[33].bitTorrentApp.bitTorrentClient  DownloadComplete_Test:vector  ETV
attr source BitTorrentClient_DownloadComplete_Test
attr title "Descargas completas (prueba), vector"
67	43900 65 167 175344833 36001 36163.19715126957 2 36001 36163.19715127 72164.19715127 2603848829.2016
vector 69  BasicTopology.peer[34].bitTorrentApp.bitTorrentClient  DownloadComplete_Test:vector  ETV
attr source BitTorrentClient_DownloadComplete_Test
attr title "Descargas completas (prueba), vector"
69	43965 67 168 216706935 36001 36213.787967283309 2 36001 36213.787967283 72214.787967283 2607510439.9393
vector 71  BasicTopology.peer[35].bitTorrentApp.bitTorrentClient  DownloadComplete_Test:vector  ETV
attr source BitTorrentClient_DownloadComplete_Test
attr title "Descargas completas (prueba), vector"
71	44032 67 169 232236230 36001 36249.944766702462 2 36001 36249.944766702 72250.944766702 2610130496.5889
vector 73  BasicTopology.peer[36].bitTorrentApp.bitTorrentClient  DownloadComplete_Test:vector  ETV
attr source BitTorrentClient_DownloadComplete_Test
attr title "Descargas completas (prueba), vector"
73	44099 66 170 217110242 36001 36214.38576831713 2 36001 36214.385768317 72215.385768317 2607553737.5765
vector 75  BasicTopology.peer[37].bitTorrentApp.bitTorrentClient  DownloadComplete_Test:vector  ETV
attr source BitTorrentClient_DownloadComplete_Test
attr title "Descargas completas (prueba), vector"
75	44165 66 171 214907557 36001 36211.39187681536 2 36001 36211.391876815 72212.391876815 2607336902.6563
vector 77  BasicTopology.peer[38].bitTorrentApp.bitTorrentClient  DownloadComplete_Test:vector  ETV
attr source BitTorrentClient_DownloadComplete_Test
attr title "Descargas completas (prueba), vector"
77	44231 67 172 207849255 36001 36202.071063550579 2 36001 36202.071063551 72203.071063551 2606661950.2904
vector 79  BasicTopology.peer[39].bitTorrentApp.bitTorrentClient  DownloadComplete_Test:vector  ETV
attr source BitTorrentClient_DownloadComplete_Test
attr title "Descargas completas (prueba), vector"
79	44298 67 173 203853792 36001 36196.856353536621 2 36001 36196.856353537 72197.856353537 2606284410.8786
vector 81  BasicTopology.peer[40].bitTorrentApp.bitTorrentClient  DownloadComplete_Test:vector  ETV
attr source BitTorrentClient_DownloadComplete_Test
attr title "Descargas completas (prueba), vector"
81	44365 67 174 227137887 36001 36229.224357318438 2 36001 36229.224357318 72230.224357318 2608628698.5329
vector 83  BasicTopology.peer[41].bitTorrentApp.bitTorrentClient  DownloadComplete_Test:vector  ETV
attr source BitTorrentClient_DownloadComplete_Test
attr title "Descargas completas (prueba), vector"
83	44432 67 175 124331466 36001 36114.352858337483 2 36001 36114.352858337 72115.352858337 2600318483.3765
vector 85  BasicTopology.peer[42].bitTorrentApp.bitTorrentClient  DownloadComplete_Test:vector  ETV
attr source BitTorrentClient_DownloadComplete_Test
attr title "Descargas completas (prueba), vector"
85	44499 67 176 192919890 36001 36183.076564439485 2 36001 36183.076564439 72184.076564439 2605287030.6681
vector 87  BasicTopology.peer[43].bitTorrentApp.bitTorrentClient  DownloadComplete_Test:vector  ETV
attr source BitTorrentClient_DownloadComplete_Test
attr title "Descargas completas (prueba), vector"
87	44566 67 177 168542459 36001 36156.399922559188 2 36001 36156.399922559 72157.399922559 2603357256.36
vector 89  BasicTopology.peer[44].bitTorrentApp.bitTorrentClient  DownloadComplete_Test:vector  ETV
attr source BitTorrentClient_DownloadComplete_Test
attr title "Descargas completas (prueba), vector"
89	44633 67 178 216259145 36001 36213.032218558513 2 36001 36213.032218559 72214.032218559 2607455703.4624
vector 91  BasicTopology.peer[45].bitTorrentApp.bitTorrentClient  DownloadComplete_Test:vector  ETV
attr source BitTorrentClient_DownloadComplete_Test
attr title "Descargas completas (prueba), vector"
91	44700 67 179 214516434 36001 36210.776187543105 2 36001 36210.776187543 72211.776187543 2607292313.1043
vector 93  BasicTopology.peer[46].bitTorrentApp.bitTorrentClient  DownloadComplete_Test:vector  ETV
attr source BitTorrentClient_DownloadComplete_Test
attr title "Descargas completas (prueba), vector"
93	44767 66 180 197744497 36001 36189.09576483203 2 36001 36189.095764832 72190.095764832 2605722653.2762
vector 95  BasicTopology.peer[47].bitTorrentApp.bitTorrentClient  DownloadComplete_Test:vector  ETV
attr source BitTorrentClient_DownloadComplete_Test
attr title "Descargas completas (prueba), vector"
95	44833 67 181 192553534 36001 36182.470333914814 2 36001 36182.470333915 72183.470333915 2605243160.4646
vector 97  BasicTopology.peer[48].bitTorrentApp.bitTorrentClient  DownloadComplete_Test:vector  ETV
attr source BitTorrentClient_DownloadComplete_Test
attr title "Descargas completas (prueba), vector"
97	44900 66 182 226005089 36001 36227.583841219518 2 36001 36227.58384122 72228.58384122 2608509831.9726
vector 99  BasicTopology.peer[49].bitTorrentApp.bitTorrentClient  DownloadComplete_Test:vector  ETV
attr source BitTorrentClient_DownloadComplete_Test
attr title "Descargas completas (prueba), vector"
99	44966 67 183 228729499 36001 36232.355249191208 2 36001 36232.355249191 72233.355249191 2608855567.9036
vector 1633  BasicTopology.peer[0].bitTorrentApp.bitTorrentClient.contentManager_51  TotalBytesUploaded:vector  ETV
attr source ContentManager_TotalBytesUploaded
attr title "Total of Bytes Uploaded, vector"
attr unit B
1633	45033 13165 1360821 200798379 36002.592463413823 36192.972533180491 324 32768 10616832 1725235200 1.2229865688269e+16
vector 1800  BasicTopology.peer[21].bitTorrentApp.bitTorrentClient.contentManager_51  TotalBytesDownloaded:vector  ETV
attr source ContentManager_TotalBytesDownloaded
attr title "Total of Bytes Downloaded, vector"
attr unit B
1800	232574 3885 2798041 126471396 36005.225330880184 36116.269174426207 96 32768 3145728 152567808 3.2162433099366e+14
vector 1640  BasicTopology.peer[1].bitTorrentApp.bitTorrentClient.contentManager_51  TotalBytesDownloaded:vector  ETV
attr source ContentManager_TotalBytesDownloaded
attr title "Total of Bytes Downloaded, vector"
attr unit B
1640	58616 3858 2888121 24810180 36005.493334746015 36031.683510196271 96 32768 3145728 152567808 3.2162433099366e+14
vector 1880  BasicTopology.peer[31].bitTorrentApp.bitTorrentClient.contentManager_51  TotalBytesDownloaded:vector  ETV
attr source ContentManager_TotalBytesDownloaded
attr title "Total of Bytes Downloaded, vector"
attr unit B
1880	305439 3894 3014694 214728848 36005.688037078622 36211.12311171704 96 32768 3145728 152567808 3.2162433099366e+14
vector 1639  BasicTopology.peer[1].bitTorrentApp.bitTorrentClient.contentManager_51  PiecesDownloaded:vector  ETV
attr source ContentManager_PieceDownloaded
attr title "Pieces Downloaded, vector"
1639	58198 418 3252804 24810180 36006.718867980896 36031.683510196271 12 0 11 66 506
vector 1656  BasicTopology.peer[3].bitTorrentApp.bitTorrentClient.contentManager_51  TotalBytesDownloaded:vector  ETV
attr source ContentManager_TotalBytesDownloaded
attr title "Total of Bytes Downloaded, vector"
attr unit B
1656	84556 3884 3281219 142116833 36006.790586055622 36129.92509256859 96 32768 3145728 152567808 3.2162433099366e+14
vector 1641  BasicTopology.peer[1].bitTorrentApp.bitTorrentClient.contentManager_51  TotalBytesUploaded:vector  ETV
attr source ContentManager_TotalBytesUploaded
attr title "Total of Bytes Uploaded, vector"
attr unit B
1641	62474 11829 3291609 228028815 36006.827408932538 36231.153939011617 291 32768 9535488 1392181248 8.8652913877975e+15
vector 1648  BasicTopology.peer[2].bitTorrentApp.bitTorrentClient.contentManager_51  TotalBytesDownloaded:vector  ETV
attr source ContentManager_TotalBytesDownloaded
attr title "Total of Bytes Downloaded, vector"
attr unit B
1648	74727 3930 3326270 161883624 36006.911296039487 36149.462617702158 96 32768 3145728 152567808 3.2162433099366e+14
vector 1647  BasicTopology.peer[2].bitTorrentApp.bitTorrentClient.contentManager_51  PiecesDownloaded:vector  ETV
attr source ContentManager_PieceDownloaded
attr title "Pieces Downloaded, vector"
1647	74303 424 3586302 161883624 36007.30535199851 36149.462617702158 12 0 11 66 506
vector 1649  BasicTopology.peer[2].bitTorrentApp.bitTorrentClient.contentManager_51  TotalBytesUploaded:vector  ETV
attr source ContentManager_TotalBytesUploaded
attr title "Total of Bytes Uploaded, vector"
attr unit B
1649	78657 5480 3634525 162010620 36007.403164454199 36149.57678896035 136 32768 4456448 305266688 9.1027107374694e+14
vector 1840  BasicTopology.peer[26].bitTorrentApp.bitTorrentClient.contentManager_51  TotalBytesDownloaded:vector  ETV
attr source ContentManager_TotalBytesDownloaded
attr title "Total of Bytes Downloaded, vector"
attr unit B
1840	272707 3952 3690676 214813842 36007.532726810244 36211.250213328347 96 32768 3145728 152567808 3.2162433099366e+14
vector 1799  BasicTopology.peer[21].bitTorrentApp.bitTorrentClient.contentManager_51  PiecesDownloaded:vector  ETV
attr source ContentManager_PieceDownloaded
attr title "Pieces Downloaded, vector"
1799	232151 423 3922490 126471396 36007.805160250538 36116.269174426207 12 0 11 66 506
vector 1801  BasicTopology.peer[21].bitTorrentApp.bitTorrentClient.contentManager_51  TotalBytesUploaded:vector  ETV
attr source ContentManager_TotalBytesUploaded
attr title "Total of Bytes Uploaded, vector"
attr unit B
1801	236459 7643 3949818 201137792 36007.836430069505 36193.393701476048 188 32768 6160384 582156288 2.3972295538115e+15
vector 1744  BasicTopology.peer[14].bitTorrentApp.bitTorrentClient.contentManager_51  TotalBytesDownloaded:vector  ETV
attr source ContentManager_TotalBytesDownloaded
attr title "Total of Bytes Downloaded, vector"
attr unit B
1744	186621 3957 4068007 223326652 36008.288314800813 36223.588167516744 96 32768 3145728 152567808 3.2162433099366e+14
vector 1672  BasicTopology.peer[5].bitTorrentApp.bitTorrentClient.contentManager_51  TotalBytesDownloaded:vector  ETV
attr source ContentManager_TotalBytesDownloaded
attr title "Total of Bytes Downloaded, vector"
attr unit B
1672	108493 3920 4598231 189966152 36009.119604835864 36179.411309476639 96 32768 3145728 152567808 3.2162433099366e+14
vector 1824  BasicTopology.peer[24].bitTorrentApp.bitTorrentClient.contentManager_51  TotalBytesDownloaded:vector  ETV
attr source ContentManager_TotalBytesDownloaded
attr title "Total of Bytes Downloaded, vector"
attr unit B
1824	257792 4020 4605722 212436485 36009.131702330934 36207.849189722243 98 32768 3211264 158957568 3.4203938429338e+14
vector 1808  BasicTopology.peer[22].bitTorrentApp.bitTorrentClient.contentManager_51  TotalBytesDownloaded:vector  ETV
attr source ContentManager_TotalBytesDownloaded
attr title "Total of Bytes Downloaded, vector"
attr unit B
1808	244524 3906 5440307 156454415 36010.423654834298 36143.952659378261 96 32768 3145728 152567808 3.2162433099366e+14
vector 1712  BasicTopology.peer[10].bitTorrentApp.bitTorrentClient.contentManager_51  TotalBytesDownloaded:vector  ETV
attr source ContentManager_TotalBytesDownloaded
attr title "Total of Bytes Downloaded, vector"
attr unit B
1712	155714 3895 5548925 221827428 36010.616069930327 36221.338050858641 96 32768 3145728 152567808 3.2162433099366e+14
vector 1752  BasicTopology.peer[15].bitTorrentApp.bitTorrentClient.contentManager_51  TotalBytesDownloaded:vector  ETV
attr source ContentManager_TotalBytesDownloaded
attr title "Total of Bytes Downloaded, vector"
attr unit B
1752	195916 3944 5895802 184404067 36011.274949123754 36173.11838542474 96 32768 3145728 152567808 3.2162433099366e+14
vector 1655  BasicTopology.peer[3].bitTorrentApp.bitTorrentClient.contentManager_51  PiecesDownloaded:vector  ETV
attr source ContentManager_PieceDownloaded
attr title "Pieces Downloaded, vector"
1655	84137 419 6455098 142116833 36012.355233847263 36129.92509256859 12 0 11 66 506
vector 1657  BasicTopology.peer[3].bitTorrentApp.bitTorrentClient.contentManager_51  TotalBytesUploaded:vector  ETV
attr source ContentManager_TotalBytesUploaded
attr title "Total of Bytes Uploaded, vector"
attr unit B
1657	88440 9178 6463810 137768415 36012.421664584258 36125.88712108661 225 32768 7372800 833126400 4.1040828432384e+15
vector 1711  BasicTopology.peer[10].bitTorrentApp.bitTorrentClient.contentManager_51  PiecesDownloaded:vector  ETV
attr source ContentManager_PieceDownloaded
attr title "Pieces Downloaded, vector"
1711	155294 420 6718699 221827428 36012.897849099208 36221.338050858641 12 0 11 66 506
vector 1713  BasicTopology.peer[10].bitTorrentApp.bitTorrentClient.contentManager_51  TotalBytesUploaded:vector  ETV
attr source ContentManager_TotalBytesUploaded
attr title "Total of Bytes Uploaded, vector"
attr unit B
1713	159609 7162 6964730 227583173 36013.137217525925 36230.437695839336 176 32768 5767168 510394368 1.9679282452234e+15
vector 1736  BasicTopology.peer[13].bitTorrentApp.bitTorrentClient.contentManager_51  TotalBytesDownloaded:vector  ETV
attr source ContentManager_TotalBytesDownloaded
attr title "Total of Bytes Downloaded, vector"
attr unit B
1736	182238 3951 7205421 215849583 36013.585336949691 36212.483263658427 96 32768 3145728 152567808 3.2162433099366e+14
vector 1688  BasicTopology.peer[7].bitTorrentApp.bitTorrentClient.contentManager_51  TotalBytesDownloaded:vector  ETV
attr source ContentManager_TotalBytesDownloaded
attr title "Total of Bytes Downloaded, vector"
attr unit B
1688	128848 3929 7341101 179315438 36013.8719328866 36167.405344290366 96 32768 3145728 152567808 3.2162433099366e+14
vector 1823  BasicTopology.peer[24].bitTorrentApp.bitTorrentClient.contentManager_51  PiecesDownloaded:vector  ETV
attr source ContentManager_PieceDownloaded
attr title "Pieces Downloaded, vector"
1823	257363 429 7495481 212436485 36014.245456047705 36207.849189722243 12 0 11 66 506
vector 1825  BasicTopology.peer[24].bitTorrentApp.bitTorrentClient.contentManager_51  TotalBytesUploaded:vector  ETV
attr source ContentManager_TotalBytesUploaded
attr title "Total of Bytes Uploaded, vector"
attr unit B
1825	261812 5803 7508390 212558946 36014.260414820852 36207.974079776821 143 32768 4685824 337379328 1.0576185167708e+15
vector 1879  BasicTopology.peer[31].bitTorrentApp.bitTorrentClient.contentManager_51  PiecesDownloaded:vector  ETV
attr source ContentManager_PieceDownloaded
attr title "Pieces Downloaded, vector"
1879	305019 420 7696441 214728848 36014.511725665018 36211.12311171704 12 0 11 66 506
vector 1881  BasicTopology.peer[31].bitTorrentApp.bitTorrentClient.contentManager_51  TotalBytesUploaded:vector  ETV
attr source ContentManager_TotalBytesUploaded
attr title "Total of Bytes Uploaded, vector"
attr unit B
1881	309333 10816 7714313 232053347 36014.539578866586 36248.58398056327 264 32768 8650752 1146224640 6.6229898942874e+15
vector 1936  BasicTopology.peer[38].bitTorrentApp.bitTorrentClient.contentManager_51  TotalBytesDownloaded:vector  ETV
attr source ContentManager_TotalBytesDownloaded
attr title "Total of Bytes Downloaded, vector"
attr unit B
1936	366756 4369 7796802 213528562 36014.658513106615 36209.379100933523 106 32768 3473408 185827328 4.3233248175718e+14
vector 1696  BasicTopology.peer[8].bitTorrentApp.bitTorrentClient.contentManager_51  TotalBytesDownloaded:vector  ETV
attr source ContentManager_TotalBytesDownloaded
attr title "Total of Bytes Downloaded, vector"
attr unit B
1696	140063 3943 8041610 225502053 36015.09115399597 36226.898346338502 96 32768 3145728 152567808 3.2162433099366e+14
vector 1912  BasicTopology.peer[35].bitTorrentApp.bitTorrentClient.contentManager_51  TotalBytesDownloaded:vector  ETV
attr source ContentManager_TotalBytesDownloaded
attr title "Total of Bytes Downloaded, vector"
attr unit B
1912	343191 4878 8074818 232236230 36015.152218934938 36249.944766702462 118 32768 3866624 230064128 5.9556056635802e+14
vector 1680  BasicTopology.peer[6].bitTorrentApp.bitTorrentClient.contentManager_51  TotalBytesDownloaded:vector  ETV
attr source ContentManager_TotalBytesDownloaded
attr title "Total of Bytes Downloaded, vector"
attr unit B
1680	118258 3955 8295847 227171176 36015.583632580029 36229.511682195736 96 32768 3145728 152567808 3.2162433099366e+14
vector 1896  BasicTopology.peer[33].bitTorrentApp.bitTorrentClient.contentManager_51  TotalBytesDownloaded:vector  ETV
attr source ContentManager_TotalBytesDownloaded
attr title "Total of Bytes Downloaded, vector"
attr unit B
1896	327916 3933 8404902 175344833 36015.748659900494 36163.19715126957 96 32768 3145728 152567808 3.2162433099366e+14
vector 1864  BasicTopology.peer[29].bitTorrentApp.bitTorrentClient.contentManager_51  TotalBytesDownloaded:vector  ETV
attr source ContentManager_TotalBytesDownloaded
attr title "Total of Bytes Downloaded, vector"
attr unit B
1864	288038 3949 8498051 218935522 36015.863766141756 36216.866156988876 96 32768 3145728 152567808 3.2162433099366e+14
vector 1895  BasicTopology.peer[33].bitTorrentApp.bitTorrentClient.contentManager_51  PiecesDownloaded:vector  ETV
attr source ContentManager_PieceDownloaded
attr title "Pieces Downloaded, vector"
1895	327490 426 9057352 175344833 36016.479388142582 36163.19715126957 12 0 11 66 506
vector 1897  BasicTopology.peer[33].bitTorrentApp.bitTorrentClient.contentManager_51  TotalBytesUploaded:vector  ETV
attr source ContentManager_TotalBytesUploaded
attr title "Total of Bytes Uploaded, vector"
attr unit B
1897	331849 5564 9145892 143661451 36016.526223258107 36131.448344894699 136 32768 4456448 305266688 9.1027107374694e+14
vector 1728  BasicTopology.peer[12].bitTorrentApp.bitTorrentClient.contentManager_51  TotalBytesDownloaded:vector  ETV
attr source ContentManager_TotalBytesDownloaded
attr title "Total of Bytes Downloaded, vector"
attr unit B
1728	174665 3937 9525153 223099836 36016.954595297301 36223.215620907575 96 32768 3145728 152567808 3.2162433099366e+14
vector 1992  BasicTopology.peer[45].bitTorrentApp.bitTorrentClient.contentManager_51  TotalBytesDownloaded:vector  ETV
attr source ContentManager_TotalBytesDownloaded
attr title "Total of Bytes Downloaded, vector"
attr unit B
1992	434726 3947 9803504 214516434 36017.277942359611 36210.776187543105 96 32768 3145728 152567808 3.2162433099366e+14
vector 1960  BasicTopology.peer[41].bitTorrentApp.bitTorrentClient.contentManager_51  TotalBytesDownloaded:vector  ETV
attr source ContentManager_TotalBytesDownloaded
attr title "Total of Bytes Downloaded, vector"
attr unit B
1960	390030 3906 10036394 124331466 36017.544517550087 36114.352858337483 96 32768 3145728 152567808 3.2162433099366e+14
vector 1784  BasicTopology.peer[19].bitTorrentApp.bitTorrentClient.contentManager_51  TotalBytesDownloaded:vector  ETV
attr source ContentManager_TotalBytesDownloaded
attr title "Total of Bytes Downloaded, vector"
attr unit B
1784	216901 3951 10445959 157634941 36017.979716647727 36145.086473662027 96 32768 3145728 152567808 3.2162433099366e+14
vector 1664  BasicTopology.peer[4].bitTorrentApp.bitTorrentClient.contentManager_51  TotalBytesDownloaded:vector  ETV
attr source ContentManager_TotalBytesDownloaded
attr title "Total of Bytes Downloaded, vector"
attr unit B
1664	98047 3942 10615853 206580619 36018.131327647164 36200.356907257655 96 32768 3145728 152567808 3.2162433099366e+14
vector 1807  BasicTopology.peer[22].bitTorrentApp.bitTorrentClient.contentManager_51  PiecesDownloaded:vector  ETV
attr source ContentManager_PieceDownloaded
attr title "Pieces Downloaded, vector"
1807	244102 422 10848555 156454415 36018.34150429992 36143.952659378261 12 0 11 66 506
vector 1679  BasicTopology.peer[6].bitTorrentApp.bitTorrentClient.contentManager_51  PiecesDownloaded:vector  ETV
attr source ContentManager_PieceDownloaded
attr title "Pieces Downloaded, vector"