file 473795 1593887682                                          
version 2
run Test-8-20200525-12:23:12-6616
attr configname Test
attr datetime 20200525-12:23:12
attr experiment "\"Simulation Test\""
attr inifile BasicConfig.ini
attr iterationvars ""
attr iterationvars2 $repetition=8
attr measurement "\"Peers: $peers, Rate: $rate\""
attr network BasicTopology
attr processid 6616
attr repetition 8
attr replication #8
attr resultdir results
attr runnumber 8
attr seedset 8
vector 3  BasicTopology.peer[1].bitTorrentApp.bitTorrentClient  DownloadComplete_Test:vector  ETV
attr source BitTorrentClient_DownloadComplete_Test
attr title "Descargas completas (prueba), vector"
3	41770 63 135 24897195 36001 36032.57456945366 2 36001 36032.574569454 72033.574569454 2594418431.1033
vector 5  BasicTopology.peer[2].bitTorrentApp.bitTorrentClient  DownloadComplete_Test:vector  ETV
attr source BitTorrentClient_DownloadComplete_Test
attr title "Descargas completas (prueba), vector"
5	41833 65 136 236351755 36001 36266.081811645673 2 36001 36266.081811646 72267.081811646 2611300690.969
vector 7  BasicTopology.peer[3].bitTorrentApp.bitTorrentClient  DownloadComplete_Test:vector  ETV
attr source BitTorrentClient_DownloadComplete_Test
attr title "Descargas completas (prueba), vector"
7	41898 65 137 213090225 36001 36206.617045465574 2 36001 36206.617045466 72207.617045466 2606991118.877
vector 9  BasicTopology.peer[4].bitTorrentApp.bitTorrentClient  DownloadComplete_Test:vector  ETV
attr source BitTorrentClient_DownloadComplete_Test
attr title "Descargas completas (prueba), vector"
9	41963 65 138 179809552 36001 36165.024656573771 2 36001 36165.024656574 72166.024656574 2603981009.4106
vector 11  BasicTopology.peer[5].bitTorrentApp.bitTorrentClient  DownloadComplete_Test:vector  ETV
attr source BitTorrentClient_DownloadComplete_Test
attr title "Descargas completas (prueba), vector"
11	42028 67 139 235998672 36001 36263.392490505511 2 36001 36263.392490506 72264.392490506 2611105635.9205
vector 13  BasicTopology.peer[6].bitTorrentApp.bitTorrentClient  DownloadComplete_Test:vector  ETV
attr source BitTorrentClient_DownloadComplete_Test
attr title "Descargas completas (prueba), vector"
13	42095 67 140 223784189 36001 36222.996839325194 2 36001 36222.996839325 72223.996839325 2608177501.0217
vector 15  BasicTopology.peer[7].bitTorrentApp.bitTorrentClient  DownloadComplete_Test:vector  ETV
attr source BitTorrentClient_DownloadComplete_Test
attr title "Descargas completas (prueba), vector"
15	42162 67 141 181517533 36001 36166.801753098261 2 36001 36166.801753098 72167.801753098 2604109550.0479
vector 17  BasicTopology.peer[8].bitTorrentApp.bitTorrentClient  DownloadComplete_Test:vector  ETV
attr source BitTorrentClient_DownloadComplete_Test
attr title "Descargas completas (prueba), vector"
17	42229 67 142 167592920 36001 36152.654129212814 2 36001 36152.654129213 72153.654129213 2603086401.5865
vector 19  BasicTopology.peer[9].bitTorrentApp.bitTorrentClient  DownloadComplete_Test:vector  ETV
attr source BitTorrentClient_DownloadComplete_Test
attr title "Descargas completas (prueba), vector"
19	42296 67 143 213713675 36001 36207.346321101012 2 36001 36207.346321101 72208.346321101 2607043928.6161
vector 21  BasicTopology.peer[10].bitTorrentApp.bitTorrentClient  DownloadComplete_Test:vector  ETV
attr source BitTorrentClient_DownloadComplete_Test
attr title "Descargas completas (prueba), vector"
21	42363 66 144 151566935 36001 36136.62484247221 2 36001 36136.624842472 72137.624842472 2601927656.0056
vector 23  BasicTopology.peer[11].bitTorrentApp.bitTorrentClient  DownloadComplete_Test:vector  ETV
attr source BitTorrentClient_DownloadComplete_Test
attr title "Descargas completas (prueba), vector"
23	42429 67 145 124991920 36001 36112.780851432094 2 36001 36112.780851432 72113.780851432 2600204941.8236
vector 25  BasicTopology.peer[12].bitTorrentApp.bitTorrentClient  DownloadComplete_Test:vector  ETV
attr source BitTorrentClient_DownloadComplete_Test
attr title "Descargas completas (prueba), vector"
25	42496 67 146 192586374 36001 36179.098566462382 2 36001 36179.098566462 72180.098566462 2604999174.0818
vector 27  BasicTopology.peer[13].bitTorrentApp.bitTorrentClient  DownloadComplete_Test:vector  ETV
attr source BitTorrentClient_DownloadComplete_Test
attr title "Descargas completas (prueba), vector"
27	42563 66 147 210791613 36001 36203.301768969772 2 36001 36203.30176897 72204.30176897 2606751059.9751
vector 29  BasicTopology.peer[14].bitTorrentApp.bitTorrentClient  DownloadComplete_Test:vector  ETV
attr source BitTorrentClient_DownloadComplete_Test
attr title "Descargas completas (prueba), vector"
29	42629 66 148 233910296 36001 36240.665490189976 2 36001 36240.66549019 72241.66549019 2609457836.1718
vector 31  BasicTopology.peer[15].bitTorrentApp.bitTorrentClient  DownloadComplete_Test:vector  ETV
attr source BitTorrentClient_DownloadComplete_Test
attr title "Descargas completas (prueba), vector"
31	42695 67 149 209034297 36001 36200.594026433807 2 36001 36200.594026434 72201.594026434 2606555008.8667
vector 33  BasicTopology.peer[16].bitTorrentApp.bitTorrentClient  DownloadComplete_Test:vector  ETV
attr source BitTorrentClient_DownloadComplete_Test
attr title "Descargas completas (prueba), vector"
33	42762 67 150 171452266 36001 36156.553674691762 2 36001 36156.553674692 72157.553674692 2603368374.6309
vector 35  BasicTopology.peer[17].bitTorrentApp.bitTorrentClient  DownloadComplete_Test:vector  ETV
attr source BitTorrentClient_DownloadComplete_Test
attr title "Descargas completas (prueba), vector"
35	42829 67 151 221770255 36001 36219.953404045807 2 36001 36219.953404046 72220.953404046 2607957025.5913
vector 37  BasicTopology.peer[18].bitTorrentApp.bitTorrentClient  DownloadComplete_Test:vector  ETV
attr source BitTorrentClient_DownloadComplete_Test
attr title "Descargas completas (prueba), vector"
37	42896 66 152 183885535 36001 36169.67096810063 2 36001 36169.670968101 72170.670968101 2604317098.9407
vector 39  BasicTopology.peer[19].bitTorrentApp.bitTorrentClient  DownloadComplete_Test:vector  ETV
attr source BitTorrentClient_DownloadComplete_Test
attr title "Descargas completas (prueba), vector"
39	42962 66 153 227202189 36001 36228.956126820346 2 36001 36228.95612682 72229.95612682 2608609263.039
vector 41  BasicTopology.peer[20].bitTorrentApp.bitTorrentClient  DownloadComplete_Test:vector  ETV
attr source BitTorrentClient_DownloadComplete_Test
attr title "Descargas completas (prueba), vector"
41	43028 67 154 120647902 36001 36109.195329316509 2 36001 36109.195329317 72110.195329317 2599945988.3308
vector 43  BasicTopology.peer[21].bitTorrentApp.bitTorrentClient  DownloadComplete_Test:vector  ETV
attr source BitTorrentClient_DownloadComplete_Test
attr title "Descargas completas (prueba), vector"
43	43095 66 155 212898652 36001 36206.30958286893 2 36001 36206.309582869 72207.309582869 2606968854.6106
vector 45  BasicTopology.peer[22].bitTorrentApp.bitTorrentClient  DownloadComplete_Test:vector  ETV
attr source BitTorrentClient_DownloadComplete_Test
attr title "Descargas completas (prueba), vector"
45	43161 67 156 210363364 36001 36202.686239800831 2 36001 36202.686239801 72203.686239801 2606706491.9775
vector 47  BasicTopology.peer[23].bitTorrentApp.bitTorrentClient  DownloadComplete_Test:vector  ETV
attr source BitTorrentClient_DownloadComplete_Test
attr title "Descargas completas (prueba), vector"
47	43228 67 157 209063713 36001 36200.631725249032 2 36001 36200.631725249 72201.631725249 2606557738.3071
vector 49  BasicTopology.peer[24].bitTorrentApp.bitTorrentClient  DownloadComplete_Test:vector  ETV
attr source BitTorrentClient_DownloadComplete_Test
attr title "Descargas completas (prueba), vector"
49	43295 67 158 222309663 36001 36220.784339466319 2 36001 36220.784339466 72221.784339466 2608017219.1661
vector 51  BasicTopology.peer[25].bitTorrentApp.bitTorrentClient  DownloadComplete_Test:vector  ETV
attr source BitTorrentClient_DownloadComplete_Test
attr title "Descargas completas (prueba), vector"
51	43362 67 159 233177353 36001 36239.262338055328 2 36001 36239.262338055 72240.262338055 2609356135.8064
vector 53  BasicTopology.peer[26].bitTorrentApp.bitTorrentClient  DownloadComplete_Test:vector  ETV
attr source BitTorrentClient_DownloadComplete_Test
attr title "Descargas completas (prueba), vector"
53	43429 67 160 223686194 36001 36222.748811803021 2 36001 36222.748811803 72223.748811803 2608159532.483
vector 55  BasicTopology.peer[27].bitTorrentApp.bitTorrentClient  DownloadComplete_Test:vector  ETV
attr source BitTorrentClient_DownloadComplete_Test
attr title "Descargas completas (prueba), vector"
55	43496 67 161 204559524 36001 36194.337065850631 2 36001 36194.337065851 72195.337065851 2606102036.6364
vector 57  BasicTopology.peer[28].bitTorrentApp.bitTorrentClient  DownloadComplete_Test:vector  ETV
attr source BitTorrentClient_DownloadComplete_Test
attr title "Descargas completas (prueba), vector"
57	43563 67 162 221063900 36001 36218.967803073849 2 36001 36218.967803074 72219.967803074 2607885629.7201
vector 59  BasicTopology.peer[29].bitTorrentApp.bitTorrentClient  DownloadComplete_Test:vector  ETV
attr source BitTorrentClient_DownloadComplete_Test
attr title "Descargas completas (prueba), vector"
59	43630 67 163 194772819 36001 36181.630508164685 2 36001 36181.630508165 72182.630508165 2605182387.2294
vector 61  BasicTopology.peer[30].bitTorrentApp.bitTorrentClient  DownloadComplete_Test:vector  ETV
attr source BitTorrentClient_DownloadComplete_Test
attr title "Descargas completas (prueba), vector"
61	43697 67 164 143298621 36001 36128.890526906999 2 36001 36128.890526907 72129.890526907 2601368731.7052
vector 63  BasicTopology.peer[31].bitTorrentApp.bitTorrentClient  DownloadComplete_Test:vector  ETV
attr source BitTorrentClient_DownloadComplete_Test
attr title "Descargas completas (prueba), vector"
63	43764 66 165 214981740 36001 36209.051202060044 2 36001 36209.05120206 72210.05120206 2607167389.9534
vector 65  BasicTopology.peer[32].bitTorrentApp.bitTorrentClient  DownloadComplete_Test:vector  ETV
attr source BitTorrentClient_DownloadComplete_Test
attr title "Descargas completas (prueba), vector"
65	43830 67 166 219341045 36001 36216.221761441575 2 36001 36216.221761442 72217.221761442 2607686719.6739
vector 67  BasicTopology.peer[33].bitTorrentApp.bitTorrentClient  DownloadComplete_Test:vector  ETV
attr source BitTorrentClient_DownloadComplete_Test
attr title "Descargas completas (prueba), vector"
67	43897 67 167 234181330 36001 36241.110022549411 2 36001 36241.110022549 72242.110022549 2609490056.6665
vector 69  BasicTopology.peer[34].bitTorrentApp.bitTorrentClient  DownloadComplete_Test:vector  ETV
attr source BitTorrentClient_DownloadComplete_Test
attr title "Descargas completas (prueba), vector"
69	43964 67 168 217230663 36001 36212.701621798468 2 36001 36212.701621798 72213.701621798 2607431759.7494
vector 71  BasicTopology.peer[35].bitTorrentApp.bitTorrentClient  DownloadComplete_Test:vector  ETV
attr source BitTorrentClient_DownloadComplete_Test
attr title "Descargas completas (prueba), vector"
71	44031 67 169 220027019 36001 36217.296557888718 2 36001 36217.296557889 72218.296557889 2607764570.9621
vector 73  BasicTopology.peer[36].bitTorrentApp.bitTorrentClient  DownloadComplete_Test:vector  ETV
attr source BitTorrentClient_DownloadComplete_Test
attr title "Descargas completas (prueba), vector"
73	44098 67 170 180650521 36001 36165.909749694226 2 36001 36165.909749694 72166.909749694 2604045029.023
vector 75  BasicTopology.peer[37].bitTorrentApp.bitTorrentClient  DownloadComplete_Test:vector  ETV
attr source BitTorrentClient_DownloadComplete_Test
attr title "Descargas completas (prueba), vector"
75	44165 67 171 207636965 36001 36198.236695158998 2 36001 36198.236695159 72199.236695159 2606384340.8388
vector 77  BasicTopology.peer[38].bitTorrentApp.bitTorrentClient  DownloadComplete_Test:vector  ETV
attr source BitTorrentClient_DownloadComplete_Test
attr title "Descargas completas (prueba), vector"
77	44232 67 172 203230157 36001 36192.691648904807 2 36001 36192.691648905 72193.691648905 2605982929.7927
vector 79  BasicTopology.peer[39].bitTorrentApp.bitTorrentClient  DownloadComplete_Test:vector  ETV
attr source BitTorrentClient_DownloadComplete_Test
attr title "Descargas completas (prueba), vector"
79	44299 67 173 234434264 36001 36241.628572332641 2 36001 36241.628572333 72242.628572333 2609527642.5749
vector 81  BasicTopology.peer[40].bitTorrentApp.bitTorrentClient  DownloadComplete_Test:vector  ETV
attr source BitTorrentClient_DownloadComplete_Test
attr title "Descargas completas (prueba), vector"
81	44366 66 174 191344591 36001 36177.62019191902 2 36001 36177.620191919 72178.620191919 2604892203.7507
vector 83  BasicTopology.peer[41].bitTorrentApp.bitTorrentClient  DownloadComplete_Test:vector  ETV
attr source BitTorrentClient_DownloadComplete_Test
attr title "Descargas completas (prueba), vector"
83	44432 67 175 192890986 36001 36179.484216357066 2 36001 36179.484216357 72180.484216357 2605027079.1616
vector 85  BasicTopology.peer[42].bitTorrentApp.bitTorrentClient  DownloadComplete_Test:vector  ETV
attr source BitTorrentClient_DownloadComplete_Test
attr title "Descargas completas (prueba), vector"
85	44499 67 176 220647259 36001 36218.267161264062 2 36001 36218.267161264 72219.267161264 2607834877.1647
vector 87  BasicTopology.peer[43].bitTorrentApp.bitTorrentClient  DownloadComplete_Test:vector  ETV
attr source BitTorrentClient_DownloadComplete_Test
attr title "Descargas completas (prueba), vector"
87	44566 67 177 186781399 36001 36173.000970978337 2 36001 36173.000970978 72174.000970978 2604558000.2464
vector 89  BasicTopology.peer[44].bitTorrentApp.bitTorrentClient  DownloadComplete_Test:vector  ETV
attr source BitTorrentClient_DownloadComplete_Test
attr title "Descargas completas (prueba), vector"
89	44633 67 178 199455090 36001 36187.447357263996 2 36001 36187.447357264 72188.447357264 2605603347.2348
vector 91  BasicTopology.peer[45].bitTorrentApp.bitTorrentClient  DownloadComplete_Test:vector  ETV
attr source BitTorrentClient_DownloadComplete_Test
attr title "Descargas completas (prueba), vector"
91	44700 67 179 219186097 36001 36215.980008206622 2 36001 36215.980008207 72216.980008207 2607669208.9548
vector 93  BasicTopology.peer[46].bitTorrentApp.bitTorrentClient  DownloadComplete_Test:vector  ETV
attr source BitTorrentClient_DownloadComplete_Test
attr title "Descargas completas (prueba), vector"
93	44767 66 180 231626536 36001 36236.58522869635 2 36001 36236.585228696 72237.585228696 2609162110.0365
vector 95  BasicTopology.peer[47].bitTorrentApp.bitTorrentClient  DownloadComplete_Test:vector  ETV
attr source BitTorrentClient_DownloadComplete_Test
attr title "Descargas completas (prueba), vector"
95	44833 67 181 217760949 36001 36213.577838894917 2 36001 36213.577838895 72214.577838895 2607495220.8937
vector 97  BasicTopology.peer[48].bitTorrentApp.bitTorrentClient  DownloadComplete_Test:vector  ETV
attr source BitTorrentClient_DownloadComplete_Test
attr title "Descargas completas (prueba), vector"
97	44900 66 182 223601212 36001 36222.622779589517 2 36001 36222.62277959 72223.62277959 2608150402.0325
vector 99  BasicTopology.peer[49].bitTorrentApp.bitTorrentClient  DownloadComplete_Test:vector  ETV
attr source BitTorrentClient_DownloadComplete_Test
attr title "Descargas completas (prueba), vector"
99	44966 65 183 236145636 36001 36264.3111150041 2 36001 36264.311115004 72265.311115004 2611172261.6458
vector 1633  BasicTopology.peer[0].bitTorrentApp.bitTorrentClient.contentManager_51  TotalBytesUploaded:vector  ETV
attr source ContentManager_TotalBytesUploaded
attr title "Total of Bytes Uploaded, vector"
attr unit B
1633	45031 13258 1336997 196727017 36002.55698050991 36183.883832817132 327 32768 10715136 1757282304 1.2572206794015e+16
vector 1792  BasicTopology.peer[20].bitTorrentApp.bitTorrentClient.contentManager_51  TotalBytesDownloaded:vector  ETV
attr source ContentManager_TotalBytesDownloaded
attr title "Total of Bytes Downloaded, vector"
attr unit B
1792	241811 3861 1690621 120647902 36003.999201324318 36109.195329316509 96 32768 3145728 152567808 3.2162433099366e+14
vector 1791  BasicTopology.peer[20].bitTorrentApp.bitTorrentClient.contentManager_51  PiecesDownloaded:vector  ETV
attr source ContentManager_PieceDownloaded
attr title "Pieces Downloaded, vector"
1791	241392 419 2898902 120647902 36005.494916795943 36109.195329316509 12 0 11 66 506
vector 1793  BasicTopology.peer[20].bitTorrentApp.bitTorrentClient.contentManager_51  TotalBytesUploaded:vector  ETV
attr source ContentManager_TotalBytesUploaded
attr title "Total of Bytes Uploaded, vector"
attr unit B
1793	245672 9507 2914871 210628684 36005.534707123281 36203.089973309977 233 32768 7634944 893288448 4.5565619428393e+15
vector 1640  BasicTopology.peer[1].bitTorrentApp.bitTorrentClient.contentManager_51  TotalBytesDownloaded:vector  ETV
attr source ContentManager_TotalBytesDownloaded
attr title "Total of Bytes Downloaded, vector"
attr unit B
1640	58702 3845 2988790 24897195 36005.634047458738 36032.57456945366 96 32768 3145728 152567808 3.2162433099366e+14
vector 1712  BasicTopology.peer[10].bitTorrentApp.bitTorrentClient.contentManager_51  TotalBytesDownloaded:vector  ETV
attr source ContentManager_TotalBytesDownloaded
attr title "Total of Bytes Downloaded, vector"
attr unit B
1712	151082 3885 3027293 151566935 36005.987447737871 36136.62484247221 96 32768 3145728 152567808 3.2162433099366e+14
vector 1648  BasicTopology.peer[2].bitTorrentApp.bitTorrentClient.contentManager_51  TotalBytesDownloaded:vector  ETV
attr source ContentManager_TotalBytesDownloaded
attr title "Total of Bytes Downloaded, vector"
attr unit B
1648	74464 3894 3219012 236351755 36006.996744869392 36266.081811645673 96 32768 3145728 152567808 3.2162433099366e+14
vector 1711  BasicTopology.peer[10].bitTorrentApp.bitTorrentClient.contentManager_51  PiecesDownloaded:vector  ETV
attr source ContentManager_PieceDownloaded
attr title "Pieces Downloaded, vector"
1711	150661 421 3467181 151566935 36007.233011879259 36136.62484247221 12 0 11 66 506
vector 1713  BasicTopology.peer[10].bitTorrentApp.bitTorrentClient.contentManager_51  TotalBytesUploaded:vector  ETV
attr source ContentManager_TotalBytesUploaded
attr title "Total of Bytes Uploaded, vector"
attr unit B
1713	154967 11840 3492632 230389896 36007.291408630805 36234.463489745641 291 32768 9535488 1392181248 8.8652913877975e+15
vector 1720  BasicTopology.peer[11].bitTorrentApp.bitTorrentClient.contentManager_51  TotalBytesDownloaded:vector  ETV
attr source ContentManager_TotalBytesDownloaded
attr title "Total of Bytes Downloaded, vector"
attr unit B
1720	167228 3887 3688383 124991920 36007.729930871426 36112.780851432094 96 32768 3145728 152567808 3.2162433099366e+14
vector 1639  BasicTopology.peer[1].bitTorrentApp.bitTorrentClient.contentManager_51  PiecesDownloaded:vector  ETV
attr source ContentManager_PieceDownloaded
attr title "Pieces Downloaded, vector"
1639	58289 413 3741309 24897195 36007.891844491644 36032.57456945366 12 0 11 66 506
vector 1641  BasicTopology.peer[1].bitTorrentApp.bitTorrentClient.contentManager_51  TotalBytesUploaded:vector  ETV
attr source ContentManager_TotalBytesUploaded
attr title "Total of Bytes Uploaded, vector"
attr unit B
1641	62547 11493 3762131 214920373 36007.923734297436 36208.945201488802 282 32768 9240576 1307541504 8.0692396005786e+15
vector 1760  BasicTopology.peer[16].bitTorrentApp.bitTorrentClient.contentManager_51  TotalBytesDownloaded:vector  ETV
attr source ContentManager_TotalBytesDownloaded
attr title "Total of Bytes Downloaded, vector"
attr unit B
1760	217643 3942 4393598 171452266 36009.221495613501 36156.553674691762 96 32768 3145728 152567808 3.2162433099366e+14
vector 1800  BasicTopology.peer[21].bitTorrentApp.bitTorrentClient.contentManager_51  TotalBytesDownloaded:vector  ETV
attr source ContentManager_TotalBytesDownloaded
attr title "Total of Bytes Downloaded, vector"
attr unit B
1800	255601 3890 4449056 212898652 36009.324623886999 36206.30958286893 96 32768 3145728 152567808 3.2162433099366e+14
vector 1664  BasicTopology.peer[4].bitTorrentApp.bitTorrentClient.contentManager_51  TotalBytesDownloaded:vector  ETV
attr source ContentManager_TotalBytesDownloaded
attr title "Total of Bytes Downloaded, vector"
attr unit B
1664	97276 3907 4546308 179809552 36009.556959812868 36165.024656573771 96 32768 3145728 152567808 3.2162433099366e+14
vector 1647  BasicTopology.peer[2].bitTorrentApp.bitTorrentClient.contentManager_51  PiecesDownloaded:vector  ETV
attr source ContentManager_PieceDownloaded
attr title "Pieces Downloaded, vector"
1647	74040 424 5668113 236351755 36011.671047128757 36266.081811645673 12 0 11 66 506
vector 1752  BasicTopology.peer[15].bitTorrentApp.bitTorrentClient.contentManager_51  TotalBytesDownloaded:vector  ETV
attr source ContentManager_TotalBytesDownloaded
attr title "Total of Bytes Downloaded, vector"
attr unit B
1752	212941 3948 5813799 209034297 36011.942776808891 36200.594026433807 96 32768 3145728 152567808 3.2162433099366e+14
vector 1799  BasicTopology.peer[21].bitTorrentApp.bitTorrentClient.contentManager_51  PiecesDownloaded:vector  ETV
attr source ContentManager_PieceDownloaded
attr title "Pieces Downloaded, vector"
1799	255179 422 5914657 212898652 36012.157515708588 36206.30958286893 12 0 11 66 506
vector 1801  BasicTopology.peer[21].bitTorrentApp.bitTorrentClient.contentManager_51  TotalBytesUploaded:vector  ETV
attr source ContentManager_TotalBytesUploaded
attr title "Total of Bytes Uploaded, vector"
attr unit B
1801	259491 10587 5944264 196216457 36012.217135573852 36183.329222574981 259 32768 8486912 1103298560 6.2544494880358e+15
vector 1656  BasicTopology.peer[3].bitTorrentApp.bitTorrentClient.contentManager_51  TotalBytesDownloaded:vector  ETV
attr source ContentManager_TotalBytesDownloaded
attr title "Total of Bytes Downloaded, vector"
attr unit B
1656	87134 3921 6016003 213090225 36012.708736791026 36206.617045465574 96 32768 3145728 152567808 3.2162433099366e+14
vector 1649  BasicTopology.peer[2].bitTorrentApp.bitTorrentClient.contentManager_51  TotalBytesUploaded:vector  ETV
attr source ContentManager_TotalBytesUploaded
attr title "Total of Bytes Uploaded, vector"
attr unit B
1649	78358 8349 6181452 186876551 36013.095559831138 36173.109479748591 205 32768 6717440 691896320 3.1060720300851e+15
vector 1984  BasicTopology.peer[44].bitTorrentApp.bitTorrentClient.contentManager_51  TotalBytesDownloaded:vector  ETV
attr source ContentManager_TotalBytesDownloaded
attr title "Total of Bytes Downloaded, vector"
attr unit B
1984	425608 4440 6740966 209013827 36014.166905527342 36200.550466958819 108 32768 3538944 192872448 4.571498765353e+14
vector 1696  BasicTopology.peer[8].bitTorrentApp.bitTorrentClient.contentManager_51  TotalBytesDownloaded:vector  ETV
attr source ContentManager_TotalBytesDownloaded
attr title "Total of Bytes Downloaded, vector"
attr unit B
1696	133848 3919 6947244 167592920 36014.480517712033 36152.654129212814 96 32768 3145728 152567808 3.2162433099366e+14
vector 1663  BasicTopology.peer[4].bitTorrentApp.bitTorrentClient.contentManager_51  PiecesDownloaded:vector  ETV
attr source ContentManager_PieceDownloaded
attr title "Pieces Downloaded, vector"
1663	96850 426 7114216 179809552 36014.729006145201 36165.024656573771 12 0 11 66 506
vector 1665  BasicTopology.peer[4].bitTorrentApp.bitTorrentClient.contentManager_51  TotalBytesUploaded:vector  ETV
attr source ContentManager_TotalBytesUploaded
attr title "Total of Bytes Uploaded, vector"
attr unit B
1665	101183 7463 7145229 122202982 36014.77648048577 36110.395255778016 184 32768 6029312 557711360 2.247835558871e+15
vector 1736  BasicTopology.peer[13].bitTorrentApp.bitTorrentClient.contentManager_51  TotalBytesDownloaded:vector  ETV
attr source ContentManager_TotalBytesDownloaded
attr title "Total of Bytes Downloaded, vector"
attr unit B
1736	193566 3920 7278925 210791613 36014.929263488263 36203.301768969772 96 32768 3145728 152567808 3.2162433099366e+14
vector 1784  BasicTopology.peer[19].bitTorrentApp.bitTorrentClient.contentManager_51  TotalBytesDownloaded:vector  ETV
attr source ContentManager_TotalBytesDownloaded
attr title "Total of Bytes Downloaded, vector"
attr unit B
1784	235302 3934 7799533 227202189 36015.873837742909 36228.956126820346 96 32768 3145728 152567808 3.2162433099366e+14
vector 1719  BasicTopology.peer[11].bitTorrentApp.bitTorrentClient.contentManager_51  PiecesDownloaded:vector  ETV
attr source ContentManager_PieceDownloaded
attr title "Pieces Downloaded, vector"
1719	166807 421 8029586 124991920 36016.225596855698 36112.780851432094 12 0 11 66 506
vector 1721  BasicTopology.peer[11].bitTorrentApp.bitTorrentClient.contentManager_51  TotalBytesUploaded:vector  ETV
attr source ContentManager_TotalBytesUploaded
attr title "Total of Bytes Uploaded, vector"
attr unit B
1721	171115 5994 8094044 194154386 36016.349946407071 36180.960854489353 147 32768 4816896 356450304 1.1485494168781e+15
vector 1688  BasicTopology.peer[7].bitTorrentApp.bitTorrentClient.contentManager_51  TotalBytesDownloaded:vector  ETV
attr source ContentManager_TotalBytesDownloaded
attr title "Total of Bytes Downloaded, vector"
attr unit B
1688	126910 3925 8165447 181517533 36016.458822694559 36166.801753098261 96 32768 3145728 152567808 3.2162433099366e+14
vector 1952  BasicTopology.peer[40].bitTorrentApp.bitTorrentClient.contentManager_51  TotalBytesDownloaded:vector  ETV
attr source ContentManager_TotalBytesDownloaded
attr title "Total of Bytes Downloaded, vector"
attr unit B
1952	389821 3910 8524208 191344591 36016.740221166165 36177.62019191902 96 32768 3145728 152567808 3.2162433099366e+14
vector 1768  BasicTopology.peer[17].bitTorrentApp.bitTorrentClient.contentManager_51  TotalBytesDownloaded:vector  ETV
attr source ContentManager_TotalBytesDownloaded
attr title "Total of Bytes Downloaded, vector"
attr unit B
1768	222015 3958 8578232 221770255 36016.811931489732 36219.953404045807 96 32768 3145728 152567808 3.2162433099366e+14
vector 1744  BasicTopology.peer[14].bitTorrentApp.bitTorrentClient.contentManager_51  TotalBytesDownloaded:vector  ETV
attr source ContentManager_TotalBytesDownloaded
attr title "Total of Bytes Downloaded, vector"
attr unit B
1744	206593 3947 8902380 233910296 36017.197185307885 36240.665490189976 96 32768 3145728 152567808 3.2162433099366e+14
vector 2008  BasicTopology.peer[47].bitTorrentApp.bitTorrentClient.contentManager_51  TotalBytesDownloaded:vector  ETV
attr source ContentManager_TotalBytesDownloaded
attr title "Total of Bytes Downloaded, vector"
attr unit B
2008	454617 4282 9086072 217760949 36017.471722343511 36213.577838894917 104 32768 3407872 178913280 4.0842991501312e+14
vector 1735  BasicTopology.peer[13].bitTorrentApp.bitTorrentClient.contentManager_51  PiecesDownloaded:vector  ETV
attr source ContentManager_PieceDownloaded
attr title "Pieces Downloaded, vector"
1735	193143 423 9282548 210791613 36017.7501087087 36203.301768969772 12 0 11 66 506
vector 1737  BasicTopology.peer[13].bitTorrentApp.bitTorrentClient.contentManager_51  TotalBytesUploaded:vector  ETV
attr source ContentManager_TotalBytesUploaded
attr title "Total of Bytes Uploaded, vector"
attr unit B
1737	197486 8676 9291906 210870761 36017.760320703119 36203.416287653198 213 32768 6979584 746815488 3.4831315039683e+15
vector 1840  BasicTopology.peer[26].bitTorrentApp.bitTorrentClient.contentManager_51  TotalBytesDownloaded:vector  ETV
attr source ContentManager_TotalBytesDownloaded
attr title "Total of Bytes Downloaded, vector"
attr unit B
1840	295906 4443 9380701 223738095 36017.881348093979 36222.84887414157 108 32768 3538944 192872448 4.571498765353e+14
vector 1728  BasicTopology.peer[12].bitTorrentApp.bitTorrentClient.contentManager_51  TotalBytesDownloaded:vector  ETV
attr source ContentManager_TotalBytesDownloaded
attr title "Total of Bytes Downloaded, vector"
attr unit B
1728	177532 3902 9510398 192586374 36018.041183960431 36179.098566462382 96 32768 3145728 152567808 3.2162433099366e+14
vector 1983  BasicTopology.peer[44].bitTorrentApp.bitTorrentClient.contentManager_51  PiecesDownloaded:vector  ETV
attr source ContentManager_PieceDownloaded
attr title "Pieces Downloaded, vector"
1983	425180 428 9656909 199455090 36018.211389711748 36187.447357263996 12 0 11 66 506
vector 1985  BasicTopology.peer[44].bitTorrentApp.bitTorrentClient.contentManager_51  TotalBytesUploaded:vector  ETV
attr source ContentManager_TotalBytesUploaded
attr title "Total of Bytes Uploaded, vector"
attr unit B
1985	430048 7338 9725644 199668314 36018.274135177837 36187.774354276549 180 32768 5898240 533790720 2.1047809356595e+15
vector 1968  BasicTopology.peer[42].bitTorrentApp.bitTorrentClient.contentManager_51  TotalBytesDownloaded:vector  ETV
attr source ContentManager_TotalBytesDownloaded
attr title "Total of Bytes Downloaded, vector"
attr unit B
1968	406684 3926 9976729 220647259 36018.568882196768 36218.267161264062 96 32768 3145728 152567808 3.2162433099366e+14
vector 1687  BasicTopology.peer[7].bitTorrentApp.bitTorrentClient.contentManager_51  PiecesDownloaded:vector  ETV
attr source ContentManager_PieceDownloaded
attr title "Pieces Downloaded, vector"
1687	126485 425 10476560 181517533 36019.237774771898 36166.801753098261 12 0 11 66 506
vector 1689  BasicTopology.peer[7].bitTorrentApp.bitTorrentClient.contentManager_51  TotalBytesUploaded:vector  ETV
attr source ContentManager_TotalBytesUploaded
attr title "Total of Bytes Uploaded, vector"
attr unit B
1689	130835 2585 10508480 37053029 36019.272626924335 36043.285929428782 64 32768 2097152 68157440 96035468738560
vector 1704  BasicTopology.peer[9].bitTorrentApp.bitTorrentClient.contentManager_51  TotalBytesDownloaded:vector  ETV
attr source ContentManager_TotalBytesDownloaded
attr title "Total of Bytes Downloaded, vector"
attr unit B