file 470955 1593887682                                          
version 2
run Test-6-20200525-12:22:57-6588
attr configname Test
attr datetime 20200525-12:22:57
attr experiment "\"Simulation Test\""
attr inifile BasicConfig.ini
attr iterationvars ""
attr iterationvars2 $repetition=6
attr measurement "\"Peers: $peers, Rate: $rate\""
attr network BasicTopology
attr processid 6588
attr repetition 6
attr replication #6
attr resultdir results
attr runnumber 6
attr seedset 6
vector 3  BasicTopology.peer[1].bitTorrentApp.bitTorrentClient  DownloadComplete_Test:vector  ETV
attr source BitTorrentClient_DownloadComplete_Test
attr title "Descargas completas (prueba), vector"
3	41993 65 135 211531011 36001 36203.976371984898 2 36001 36203.976371985 72204.976371985 2606799906.1432
vector 5  BasicTopology.peer[2].bitTorrentApp.bitTorrentClient  DownloadComplete_Test:vector  ETV
attr source BitTorrentClient_DownloadComplete_Test
attr title "Descargas completas (prueba), vector"
5	42058 65 136 121405007 36001 36114.907218450673 2 36001 36114.907218451 72115.907218451 2600358524.3973
vector 7  BasicTopology.peer[3].bitTorrentApp.bitTorrentClient  DownloadComplete_Test:vector  ETV
attr source BitTorrentClient_DownloadComplete_Test
attr title "Descargas completas (prueba), vector"
7	42123 65 137 211594472 36001 36204.123594823311 2 36001 36204.123594823 72205.123594823 2606810566.2692
vector 9  BasicTopology.peer[4].bitTorrentApp.bitTorrentClient  DownloadComplete_Test:vector  ETV
attr source BitTorrentClient_DownloadComplete_Test
attr title "Descargas completas (prueba), vector"
9	42188 65 138 231205403 36001 36234.538102414602 2 36001 36234.538102415 72235.538102415 2609013752.4954
vector 11  BasicTopology.peer[5].bitTorrentApp.bitTorrentClient  DownloadComplete_Test:vector  ETV
attr source BitTorrentClient_DownloadComplete_Test
attr title "Descargas completas (prueba), vector"
11	42253 67 139 224166415 36001 36223.263452742833 2 36001 36223.263452743 72224.263452743 2608196816.1668
vector 13  BasicTopology.peer[6].bitTorrentApp.bitTorrentClient  DownloadComplete_Test:vector  ETV
attr source BitTorrentClient_DownloadComplete_Test
attr title "Descargas completas (prueba), vector"
13	42320 67 140 179585808 36001 36166.870021715169 2 36001 36166.870021715 72167.870021715 2604114488.1676
vector 15  BasicTopology.peer[7].bitTorrentApp.bitTorrentClient  DownloadComplete_Test:vector  ETV
attr source BitTorrentClient_DownloadComplete_Test
attr title "Descargas completas (prueba), vector"
15	42387 67 141 215305002 36001 36209.458099336119 2 36001 36209.458099336 72210.458099336 2607196856.8476
vector 17  BasicTopology.peer[8].bitTorrentApp.bitTorrentClient  DownloadComplete_Test:vector  ETV
attr source BitTorrentClient_DownloadComplete_Test
attr title "Descargas completas (prueba), vector"
17	42454 67 142 234980654 36001 36242.076519616856 2 36001 36242.076519617 72243.076519617 2609560111.4538
vector 19  BasicTopology.peer[9].bitTorrentApp.bitTorrentClient  DownloadComplete_Test:vector  ETV
attr source BitTorrentClient_DownloadComplete_Test
attr title "Descargas completas (prueba), vector"
19	42521 67 143 209625938 36001 36201.402568284172 2 36001 36201.402568284 72202.402568284 2606613548.911
vector 21  BasicTopology.peer[10].bitTorrentApp.bitTorrentClient  DownloadComplete_Test:vector  ETV
attr source BitTorrentClient_DownloadComplete_Test
attr title "Descargas completas (prueba), vector"
21	42588 66 144 226953511 36001 36227.83544378736 2 36001 36227.835443787 72228.835443787 2608528061.9421
vector 23  BasicTopology.peer[11].bitTorrentApp.bitTorrentClient  DownloadComplete_Test:vector  ETV
attr source BitTorrentClient_DownloadComplete_Test
attr title "Descargas completas (prueba), vector"
23	42654 67 145 134950570 36001 36125.963059322792 2 36001 36125.963059323 72126.963059323 2601157207.9636
vector 25  BasicTopology.peer[12].bitTorrentApp.bitTorrentClient  DownloadComplete_Test:vector  ETV
attr source BitTorrentClient_DownloadComplete_Test
attr title "Descargas completas (prueba), vector"
25	42721 67 146 174427145 36001 36161.673228042346 2 36001 36161.673228042 72162.673228042 2603738611.6517
vector 27  BasicTopology.peer[13].bitTorrentApp.bitTorrentClient  DownloadComplete_Test:vector  ETV
attr source BitTorrentClient_DownloadComplete_Test
attr title "Descargas completas (prueba), vector"
27	42788 67 147 176647131 36001 36163.829737202885 2 36001 36163.829737203 72164.829737203 2603894582.2614
vector 29  BasicTopology.peer[14].bitTorrentApp.bitTorrentClient  DownloadComplete_Test:vector  ETV
attr source BitTorrentClient_DownloadComplete_Test
attr title "Descargas completas (prueba), vector"
29	42855 67 148 236844378 36001 36246.776811872237 2 36001 36246.776811872 72247.776811872 2609900830.2497
vector 31  BasicTopology.peer[15].bitTorrentApp.bitTorrentClient  DownloadComplete_Test:vector  ETV
attr source BitTorrentClient_DownloadComplete_Test
attr title "Descargas completas (prueba), vector"
31	42922 67 149 221876405 36001 36219.764304742153 2 36001 36219.764304742 72220.764304742 2607943327.2911
vector 33  BasicTopology.peer[16].bitTorrentApp.bitTorrentClient  DownloadComplete_Test:vector  ETV
attr source BitTorrentClient_DownloadComplete_Test
attr title "Descargas completas (prueba), vector"
33	42989 67 150 218382134 36001 36214.366703771856 2 36001 36214.366703772 72215.366703772 2607552356.7553
vector 35  BasicTopology.peer[17].bitTorrentApp.bitTorrentClient  DownloadComplete_Test:vector  ETV
attr source BitTorrentClient_DownloadComplete_Test
attr title "Descargas completas (prueba), vector"
35	43056 65 151 207087848 36001 36198.0541280391 2 36001 36198.054128039 72199.054128039 2606371123.6564
vector 37  BasicTopology.peer[18].bitTorrentApp.bitTorrentClient  DownloadComplete_Test:vector  ETV
attr source BitTorrentClient_DownloadComplete_Test
attr title "Descargas completas (prueba), vector"
37	43121 67 152 229462668 36001 36231.556966595928 2 36001 36231.556966596 72232.556966596 2608797721.2237
vector 39  BasicTopology.peer[19].bitTorrentApp.bitTorrentClient  DownloadComplete_Test:vector  ETV
attr source BitTorrentClient_DownloadComplete_Test
attr title "Descargas completas (prueba), vector"
39	43188 67 153 194024154 36001 36182.614963227979 2 36001 36182.614963228 72183.614963228 2605253626.5772
vector 41  BasicTopology.peer[20].bitTorrentApp.bitTorrentClient  DownloadComplete_Test:vector  ETV
attr source BitTorrentClient_DownloadComplete_Test
attr title "Descargas completas (prueba), vector"
41	43255 67 154 200203616 36001 36189.390595745911 2 36001 36189.390595746 72190.390595746 2605743992.6915
vector 43  BasicTopology.peer[21].bitTorrentApp.bitTorrentClient  DownloadComplete_Test:vector  ETV
attr source BitTorrentClient_DownloadComplete_Test
attr title "Descargas completas (prueba), vector"
43	43322 66 155 213357442 36001 36206.37932739431 2 36001 36206.379327394 72207.379327394 2606973904.9991
vector 45  BasicTopology.peer[22].bitTorrentApp.bitTorrentClient  DownloadComplete_Test:vector  ETV
attr source BitTorrentClient_DownloadComplete_Test
attr title "Descargas completas (prueba), vector"
45	43388 66 156 207724643 36001 36198.911382760281 2 36001 36198.91138276 72199.91138276 2606433186.2969
vector 47  BasicTopology.peer[23].bitTorrentApp.bitTorrentClient  DownloadComplete_Test:vector  ETV
attr source BitTorrentClient_DownloadComplete_Test
attr title "Descargas completas (prueba), vector"
47	43454 66 157 223140869 36001 36221.75109309855 2 36001 36221.751093099 72222.751093099 2608087253.2504
vector 49  BasicTopology.peer[24].bitTorrentApp.bitTorrentClient  DownloadComplete_Test:vector  ETV
attr source BitTorrentClient_DownloadComplete_Test
attr title "Descargas completas (prueba), vector"
49	43520 67 158 228752415 36001 36230.497869405654 2 36001 36230.497869406 72231.497869406 2608720976.865
vector 51  BasicTopology.peer[25].bitTorrentApp.bitTorrentClient  DownloadComplete_Test:vector  ETV
attr source BitTorrentClient_DownloadComplete_Test
attr title "Descargas completas (prueba), vector"
51	43587 67 159 214969828 36001 36209.021997534026 2 36001 36209.021997534 72210.021997534 2607165275.0179
vector 53  BasicTopology.peer[26].bitTorrentApp.bitTorrentClient  DownloadComplete_Test:vector  ETV
attr source BitTorrentClient_DownloadComplete_Test
attr title "Descargas completas (prueba), vector"
53	43654 66 160 234848569 36001 36241.79779521477 2 36001 36241.797795215 72242.797795215 2609539908.4293
vector 55  BasicTopology.peer[27].bitTorrentApp.bitTorrentClient  DownloadComplete_Test:vector  ETV
attr source BitTorrentClient_DownloadComplete_Test
attr title "Descargas completas (prueba), vector"
55	43720 66 161 200964343 36001 36190.14797044832 2 36001 36190.147970448 72191.147970448 2605798811.1229
vector 57  BasicTopology.peer[28].bitTorrentApp.bitTorrentClient  DownloadComplete_Test:vector  ETV
attr source BitTorrentClient_DownloadComplete_Test
attr title "Descargas completas (prueba), vector"
57	43786 67 162 219256394 36001 36215.762602628972 2 36001 36215.762602629 72216.762602629 2607653461.89
vector 59  BasicTopology.peer[29].bitTorrentApp.bitTorrentClient  DownloadComplete_Test:vector  ETV
attr source BitTorrentClient_DownloadComplete_Test
attr title "Descargas completas (prueba), vector"
59	43853 67 163 196077073 36001 36184.748050163429 2 36001 36184.748050163 72185.748050163 2605407992.4538
vector 61  BasicTopology.peer[30].bitTorrentApp.bitTorrentClient  DownloadComplete_Test:vector  ETV
attr source BitTorrentClient_DownloadComplete_Test
attr title "Descargas completas (prueba), vector"
61	43920 66 164 233718380 36001 36239.44422516688 2 36001 36239.444225167 72240.444225167 2609369318.749
vector 63  BasicTopology.peer[31].bitTorrentApp.bitTorrentClient  DownloadComplete_Test:vector  ETV
attr source BitTorrentClient_DownloadComplete_Test
attr title "Descargas completas (prueba), vector"
63	43986 67 165 236771319 36001 36246.434918461154 2 36001 36246.434918461 72247.434918461 2609876045.2982
vector 65  BasicTopology.peer[32].bitTorrentApp.bitTorrentClient  DownloadComplete_Test:vector  ETV
attr source BitTorrentClient_DownloadComplete_Test
attr title "Descargas completas (prueba), vector"
65	44053 67 166 206554195 36001 36197.390498132857 2 36001 36197.390498133 72198.390498133 2606323079.8743
vector 67  BasicTopology.peer[33].bitTorrentApp.bitTorrentClient  DownloadComplete_Test:vector  ETV
attr source BitTorrentClient_DownloadComplete_Test
attr title "Descargas completas (prueba), vector"
67	44120 66 167 206567867 36001 36197.403048539982 2 36001 36197.40304854 72198.40304854 2606323988.4585
vector 69  BasicTopology.peer[34].bitTorrentApp.bitTorrentClient  DownloadComplete_Test:vector  ETV
attr source BitTorrentClient_DownloadComplete_Test
attr title "Descargas completas (prueba), vector"
69	44186 67 168 217058766 36001 36212.256544008733 2 36001 36212.256544009 72213.256544009 2607399525.0091
vector 71  BasicTopology.peer[35].bitTorrentApp.bitTorrentClient  DownloadComplete_Test:vector  ETV
attr source BitTorrentClient_DownloadComplete_Test
attr title "Descargas completas (prueba), vector"
71	44253 67 169 185857688 36001 36173.992271131754 2 36001 36173.992271132 72174.992271132 2604629717.8319
vector 73  BasicTopology.peer[36].bitTorrentApp.bitTorrentClient  DownloadComplete_Test:vector  ETV
attr source BitTorrentClient_DownloadComplete_Test
attr title "Descargas completas (prueba), vector"
73	44320 67 170 154789982 36001 36142.629038742835 2 36001 36142.629038743 72143.629038743 2602361634.8322
vector 75  BasicTopology.peer[37].bitTorrentApp.bitTorrentClient  DownloadComplete_Test:vector  ETV
attr source BitTorrentClient_DownloadComplete_Test
attr title "Descargas completas (prueba), vector"
75	44387 67 171 228808042 36001 36230.588225856943 2 36001 36230.588225857 72231.588225857 2608727524.1916
vector 77  BasicTopology.peer[38].bitTorrentApp.bitTorrentClient  DownloadComplete_Test:vector  ETV
attr source BitTorrentClient_DownloadComplete_Test
attr title "Descargas completas (prueba), vector"
77	44454 67 172 227315825 36001 36228.410643794106 2 36001 36228.410643794 72229.410643794 2608569738.7754
vector 79  BasicTopology.peer[39].bitTorrentApp.bitTorrentClient  DownloadComplete_Test:vector  ETV
attr source BitTorrentClient_DownloadComplete_Test
attr title "Descargas completas (prueba), vector"
79	44521 67 173 208256617 36001 36199.580270813134 2 36001 36199.580270813 72200.580270813 2606481612.783
vector 81  BasicTopology.peer[40].bitTorrentApp.bitTorrentClient  DownloadComplete_Test:vector  ETV
attr source BitTorrentClient_DownloadComplete_Test
attr title "Descargas completas (prueba), vector"
81	44588 67 174 238399786 36001 36251.165000429286 2 36001 36251.165000429 72252.165000429 2610218964.8883
vector 83  BasicTopology.peer[41].bitTorrentApp.bitTorrentClient  DownloadComplete_Test:vector  ETV
attr source BitTorrentClient_DownloadComplete_Test
attr title "Descargas completas (prueba), vector"
83	44655 67 175 215895307 36001 36210.406245692419 2 36001 36210.406245692 72211.406245692 2607265521.4781
vector 85  BasicTopology.peer[42].bitTorrentApp.bitTorrentClient  DownloadComplete_Test:vector  ETV
attr source BitTorrentClient_DownloadComplete_Test
attr title "Descargas completas (prueba), vector"
85	44722 67 176 238161664 36001 36250.562235887789 2 36001 36250.562235888 72251.562235888 2610175263.418
vector 87  BasicTopology.peer[43].bitTorrentApp.bitTorrentClient  DownloadComplete_Test:vector  ETV
attr source BitTorrentClient_DownloadComplete_Test
attr title "Descargas completas (prueba), vector"
87	44789 67 177 229084421 36001 36231.010751697081 2 36001 36231.010751697 72232.010751697 2608758141.0896
vector 89  BasicTopology.peer[44].bitTorrentApp.bitTorrentClient  DownloadComplete_Test:vector  ETV
attr source BitTorrentClient_DownloadComplete_Test
attr title "Descargas completas (prueba), vector"
89	44856 67 178 231860027 36001 36235.789171344243 2 36001 36235.789171344 72236.789171344 2609104417.8701
vector 91  BasicTopology.peer[45].bitTorrentApp.bitTorrentClient  DownloadComplete_Test:vector  ETV
attr source BitTorrentClient_DownloadComplete_Test
attr title "Descargas completas (prueba), vector"
91	44923 67 179 231312898 36001 36234.843898996756 2 36001 36234.843898997 72235.843898997 2609035913.3847
vector 93  BasicTopology.peer[46].bitTorrentApp.bitTorrentClient  DownloadComplete_Test:vector  ETV
attr source BitTorrentClient_DownloadComplete_Test
attr title "Descargas completas (prueba), vector"
93	44990 67 180 232388523 36001 36236.911452452483 2 36001 36236.911452452 72237.911452452 2609185752.6128
vector 95  BasicTopology.peer[47].bitTorrentApp.bitTorrentClient  DownloadComplete_Test:vector  ETV
attr source BitTorrentClient_DownloadComplete_Test
attr title "Descargas completas (prueba), vector"
95	45057 67 181 203704793 36001 36193.613523953905 2 36001 36193.613523954 72194.613523954 2606049660.9213
vector 97  BasicTopology.peer[48].bitTorrentApp.bitTorrentClient  DownloadComplete_Test:vector  ETV
attr source BitTorrentClient_DownloadComplete_Test
attr title "Descargas completas (prueba), vector"
97	45124 67 182 226355680 36001 36226.832323240926 2 36001 36226.832323241 72227.832323241 2608455381.1762
vector 99  BasicTopology.peer[49].bitTorrentApp.bitTorrentClient  DownloadComplete_Test:vector  ETV
attr source BitTorrentClient_DownloadComplete_Test
attr title "Descargas completas (prueba), vector"
99	45191 67 183 215969568 36001 36210.543786334134 2 36001 36210.543786334 72211.543786334 2607275482.302
vector 1633  BasicTopology.peer[0].bitTorrentApp.bitTorrentClient.contentManager_51  TotalBytesUploaded:vector  ETV
attr source ContentManager_TotalBytesUploaded
attr title "Total of Bytes Uploaded, vector"
attr unit B
1633	45258 11284 771248 222792535 36001.60775519288 36221.263350144029 278 32768 9109504 1270775808 7.7313051312783e+15
vector 1728  BasicTopology.peer[12].bitTorrentApp.bitTorrentClient.contentManager_51  TotalBytesDownloaded:vector  ETV
attr source ContentManager_TotalBytesDownloaded
attr title "Total of Bytes Downloaded, vector"
attr unit B
1728	179876 3915 1700441 174427145 36003.139183551894 36161.673228042346 96 32768 3145728 152567808 3.2162433099366e+14
vector 1720  BasicTopology.peer[11].bitTorrentApp.bitTorrentClient.contentManager_51  TotalBytesDownloaded:vector  ETV
attr source ContentManager_TotalBytesDownloaded
attr title "Total of Bytes Downloaded, vector"
attr unit B
1720	162194 3876 2200923 134950570 36004.200613227694 36125.963059322792 96 32768 3145728 152567808 3.2162433099366e+14
vector 1736  BasicTopology.peer[13].bitTorrentApp.bitTorrentClient.contentManager_51  TotalBytesDownloaded:vector  ETV
attr source ContentManager_TotalBytesDownloaded
attr title "Total of Bytes Downloaded, vector"
attr unit B
1736	197971 3928 3018955 176647131 36005.415738868471 36163.829737202885 96 32768 3145728 152567808 3.2162433099366e+14
vector 1840  BasicTopology.peer[26].bitTorrentApp.bitTorrentClient.contentManager_51  TotalBytesDownloaded:vector  ETV
attr source ContentManager_TotalBytesDownloaded
attr title "Total of Bytes Downloaded, vector"
attr unit B
1840	303679 4568 3439932 236328182 36007.009465715224 36245.011984908885 111 32768 3637248 203685888 4.9612885223014e+14
vector 1727  BasicTopology.peer[12].bitTorrentApp.bitTorrentClient.contentManager_51  PiecesDownloaded:vector  ETV
attr source ContentManager_PieceDownloaded
attr title "Pieces Downloaded, vector"
1727	179449 427 3772092 174427145 36007.920270377486 36161.673228042346 12 0 11 66 506
vector 1729  BasicTopology.peer[12].bitTorrentApp.bitTorrentClient.contentManager_51  TotalBytesUploaded:vector  ETV
attr source ContentManager_TotalBytesUploaded
attr title "Total of Bytes Uploaded, vector"
attr unit B
1729	183791 13752 3797490 168460536 36007.967392783221 36155.659850049623 336 32768 11010048 1855193088 1.3637440287801e+16
vector 1719  BasicTopology.peer[11].bitTorrentApp.bitTorrentClient.contentManager_51  PiecesDownloaded:vector  ETV
attr source ContentManager_PieceDownloaded
attr title "Pieces Downloaded, vector"
1719	161774 420 4330302 134950570 36008.93949359603 36125.963059322792 12 0 11 66 506
vector 1721  BasicTopology.peer[11].bitTorrentApp.bitTorrentClient.contentManager_51  TotalBytesUploaded:vector  ETV
attr source ContentManager_TotalBytesUploaded
attr title "Total of Bytes Uploaded, vector"
attr unit B
1721	166070 13379 4343106 233336248 36008.958542310832 36238.940985752061 327 32768 10715136 1757282304 1.2572206794015e+16
vector 1672  BasicTopology.peer[5].bitTorrentApp.bitTorrentClient.contentManager_51  TotalBytesDownloaded:vector  ETV
attr source ContentManager_TotalBytesDownloaded
attr title "Total of Bytes Downloaded, vector"
attr unit B
1672	97063 3932 4441714 224166415 36009.165390251864 36223.263452742833 96 32768 3145728 152567808 3.2162433099366e+14
vector 1760  BasicTopology.peer[16].bitTorrentApp.bitTorrentClient.contentManager_51  TotalBytesDownloaded:vector  ETV
attr source ContentManager_TotalBytesDownloaded
attr title "Total of Bytes Downloaded, vector"
attr unit B
1760	229764 3946 4537356 218382134 36009.363712768038 36214.366703771856 96 32768 3145728 152567808 3.2162433099366e+14
vector 1680  BasicTopology.peer[6].bitTorrentApp.bitTorrentClient.contentManager_51  TotalBytesDownloaded:vector  ETV
attr source ContentManager_TotalBytesDownloaded
attr title "Total of Bytes Downloaded, vector"
attr unit B
1680	107210 5020 4647121 206791000 36009.553336434416 36197.655589069326 122 32768 3997696 245858304 6.5792993394688e+14
vector 1664  BasicTopology.peer[4].bitTorrentApp.bitTorrentClient.contentManager_51  TotalBytesDownloaded:vector  ETV
attr source ContentManager_TotalBytesDownloaded
attr title "Total of Bytes Downloaded, vector"
attr unit B
1664	88152 3956 5188518 231205403 36010.295118806392 36234.538102414602 96 32768 3145728 152567808 3.2162433099366e+14
vector 1792  BasicTopology.peer[20].bitTorrentApp.bitTorrentClient.contentManager_51  TotalBytesDownloaded:vector  ETV
attr source ContentManager_TotalBytesDownloaded
attr title "Total of Bytes Downloaded, vector"
attr unit B
1792	258432 3918 5378116 200203616 36010.663542115458 36189.390595745911 96 32768 3145728 152567808 3.2162433099366e+14
vector 1759  BasicTopology.peer[16].bitTorrentApp.bitTorrentClient.contentManager_51  PiecesDownloaded:vector  ETV
attr source ContentManager_PieceDownloaded
attr title "Pieces Downloaded, vector"
1759	229335 429 6088743 218382134 36012.336032527534 36214.366703771856 12 0 11 66 506
vector 1761  BasicTopology.peer[16].bitTorrentApp.bitTorrentClient.contentManager_51  TotalBytesUploaded:vector  ETV
attr source ContentManager_TotalBytesUploaded
attr title "Total of Bytes Uploaded, vector"
attr unit B
1761	233710 6398 6152097 195736213 36012.443928160311 36184.383773239375 158 32768 5177344 411598848 1.4251549744169e+15
vector 1976  BasicTopology.peer[43].bitTorrentApp.bitTorrentClient.contentManager_51  TotalBytesDownloaded:vector  ETV
attr source ContentManager_TotalBytesDownloaded
attr title "Total of Bytes Downloaded, vector"
attr unit B
1976	427416 4355 6217190 229084421 36012.541531730705 36231.010751697081 106 32768 3473408 185827328 4.3233248175718e+14
vector 1960  BasicTopology.peer[41].bitTorrentApp.bitTorrentClient.contentManager_51  TotalBytesDownloaded:vector  ETV
attr source ContentManager_TotalBytesDownloaded
attr title "Total of Bytes Downloaded, vector"
attr unit B
1960	413125 3933 6244682 215895307 36012.59823554189 36210.406245692419 96 32768 3145728 152567808 3.2162433099366e+14
vector 1648  BasicTopology.peer[2].bitTorrentApp.bitTorrentClient.contentManager_51  TotalBytesDownloaded:vector  ETV
attr source ContentManager_TotalBytesDownloaded
attr title "Total of Bytes Downloaded, vector"
attr unit B
1648	65899 3914 6360258 121405007 36012.834060019556 36114.907218450673 96 32768 3145728 152567808 3.2162433099366e+14
vector 1696  BasicTopology.peer[8].bitTorrentApp.bitTorrentClient.contentManager_51  TotalBytesDownloaded:vector  ETV
attr source ContentManager_TotalBytesDownloaded
attr title "Total of Bytes Downloaded, vector"
attr unit B
1696	134037 3943 6955828 234980654 36013.914838404356 36242.076519616856 96 32768 3145728 152567808 3.2162433099366e+14
vector 1975  BasicTopology.peer[43].bitTorrentApp.bitTorrentClient.contentManager_51  PiecesDownloaded:vector  ETV
attr source ContentManager_PieceDownloaded
attr title "Pieces Downloaded, vector"
1975	426989 427 7301165 229084421 36014.415782361877 36231.010751697081 12 0 11 66 506
vector 1679  BasicTopology.peer[6].bitTorrentApp.bitTorrentClient.contentManager_51  PiecesDownloaded:vector  ETV
attr source ContentManager_PieceDownloaded
attr title "Pieces Downloaded, vector"
1679	106784 426 7304819 179585808 36014.419145805658 36166.870021715169 12 0 11 66 506
vector 1977  BasicTopology.peer[43].bitTorrentApp.bitTorrentClient.contentManager_51  TotalBytesUploaded:vector  ETV
attr source ContentManager_TotalBytesUploaded
attr title "Total of Bytes Uploaded, vector"
attr unit B
1977	431771 4157 7329944 230890942 36014.450946375462 36234.141847734061 103 32768 3375104 175505408 3.9681632344474e+14
vector 1681  BasicTopology.peer[6].bitTorrentApp.bitTorrentClient.contentManager_51  TotalBytesUploaded:vector  ETV
attr source ContentManager_TotalBytesUploaded
attr title "Total of Bytes Uploaded, vector"
attr unit B
1681	112230 10865 7338335 170605449 36014.470617511002 36157.937817859304 265 32768 8683520 1154908160 6.6983934138778e+15
vector 1968  BasicTopology.peer[42].bitTorrentApp.bitTorrentClient.contentManager_51  TotalBytesDownloaded:vector  ETV
attr source ContentManager_TotalBytesDownloaded
attr title "Total of Bytes Downloaded, vector"
attr unit B
1968	420102 3935 7403002 238161664 36014.58891261073 36250.562235887789 96 32768 3145728 152567808 3.2162433099366e+14
vector 1656  BasicTopology.peer[3].bitTorrentApp.bitTorrentClient.contentManager_51  TotalBytesDownloaded:vector  ETV
attr source ContentManager_TotalBytesDownloaded
attr title "Total of Bytes Downloaded, vector"
attr unit B
1656	76145 4237 7497260 211594472 36014.822998891884 36204.123594823311 104 32768 3407872 178913280 4.0842991501312e+14
vector 1992  BasicTopology.peer[45].bitTorrentApp.bitTorrentClient.contentManager_51  TotalBytesDownloaded:vector  ETV
attr source ContentManager_TotalBytesDownloaded
attr title "Total of Bytes Downloaded, vector"
attr unit B
1992	442328 3924 7524009 231312898 36014.8736208793 36234.843898996756 96 32768 3145728 152567808 3.2162433099366e+14
vector 1791  BasicTopology.peer[20].bitTorrentApp.bitTorrentClient.contentManager_51  PiecesDownloaded:vector  ETV
attr source ContentManager_PieceDownloaded
attr title "Pieces Downloaded, vector"
1791	258008 424 7719861 200203616 36015.146883139536 36189.390595745911 12 0 11 66 506
vector 1793  BasicTopology.peer[20].bitTorrentApp.bitTorrentClient.contentManager_51  TotalBytesUploaded:vector  ETV
attr source ContentManager_TotalBytesUploaded
attr title "Total of Bytes Uploaded, vector"
attr unit B
1793	262350 9213 7751099 226797695 36015.184470642408 36227.636759972095 224 32768 7340032 825753600 4.0497246633984e+15
vector 1695  BasicTopology.peer[8].bitTorrentApp.bitTorrentClient.contentManager_51  PiecesDownloaded:vector  ETV
attr source ContentManager_PieceDownloaded
attr title "Pieces Downloaded, vector"
1695	133609 428 7875205 234980654 36015.350904085358 36242.076519616856 12 0 11 66 506
vector 2008  BasicTopology.peer[47].bitTorrentApp.bitTorrentClient.contentManager_51  TotalBytesDownloaded:vector  ETV
attr source ContentManager_TotalBytesDownloaded
attr title "Total of Bytes Downloaded, vector"
attr unit B
2008	454630 4272 8028844 203704793 36015.534672078002 36193.613523953905 104 32768 3407872 178913280 4.0842991501312e+14
vector 1735  BasicTopology.peer[13].bitTorrentApp.bitTorrentClient.contentManager_51  PiecesDownloaded:vector  ETV
attr source ContentManager_PieceDownloaded
attr title "Pieces Downloaded, vector"
1735	197543 428 8055019 176647131 36015.573411298086 36163.829737202885 12 0 11 66 506
vector 1737  BasicTopology.peer[13].bitTorrentApp.bitTorrentClient.contentManager_51  TotalBytesUploaded:vector  ETV
attr source ContentManager_TotalBytesUploaded
attr title "Total of Bytes Uploaded, vector"
attr unit B
1737	201899 8515 8102498 159931842 36015.625747485131 36147.305360625579 208 32768 6815744 712245248 3.2441004678185e+15
vector 1704  BasicTopology.peer[9].bitTorrentApp.bitTorrentClient.contentManager_51  TotalBytesDownloaded:vector  ETV
attr source ContentManager_TotalBytesDownloaded
attr title "Total of Bytes Downloaded, vector"
attr unit B
1704	143578 3976 8217870 209625938 36015.777389391108 36201.402568284172 97 32768 3178496 155746304 3.3172716781568e+14
vector 1880  BasicTopology.peer[31].bitTorrentApp.bitTorrentClient.contentManager_51  TotalBytesDownloaded:vector  ETV
attr source ContentManager_TotalBytesDownloaded
attr title "Total of Bytes Downloaded, vector"
attr unit B
1880	343231 3939 9161254 236771319 36016.747817747219 36246.434918461154 96 32768 3145728 152567808 3.2162433099366e+14
vector 1856  BasicTopology.peer[28].bitTorrentApp.bitTorrentClient.contentManager_51  TotalBytesDownloaded:vector  ETV
attr source ContentManager_TotalBytesDownloaded
attr title "Total of Bytes Downloaded, vector"
attr unit B
1856	318294 4264 9189594 219256394 36016.773015377203 36215.762602628972 104 32768 3407872 178913280 4.0842991501312e+14
vector 1712  BasicTopology.peer[10].bitTorrentApp.bitTorrentClient.contentManager_51  TotalBytesDownloaded:vector  ETV
attr source ContentManager_TotalBytesDownloaded
attr title "Total of Bytes Downloaded, vector"
attr unit B
1712	151853 3946 9207849 226953511 36016.787540637948 36227.83544378736 96 32768 3145728 152567808 3.2162433099366e+14
vector 1688  BasicTopology.peer[7].bitTorrentApp.bitTorrentClient.contentManager_51  TotalBytesDownloaded:vector  ETV
attr source ContentManager_TotalBytesDownloaded
attr title "Total of Bytes Downloaded, vector"
attr unit B
1688	123523 4269 9284176 215305002 36016.849338273056 36209.458099336119 104 32768 3407872 178913280 4.0842991501312e+14
vector 1640  BasicTopology.peer[1].bitTorrentApp.bitTorrentClient.contentManager_51  TotalBytesDownloaded:vector  ETV
attr source ContentManager_TotalBytesDownloaded
attr title "Total of Bytes Downloaded, vector"
attr unit B
1640	56969 3936 9462122 211531011 36017.009982659801 36203.976371984898 96 32768 3145728 152567808 3.2162433099366e+14
vector 1952  BasicTopology.peer[40].bitTorrentApp.bitTorrentClient.contentManager_51  TotalBytesDownloaded:vector  ETV
attr source ContentManager_TotalBytesDownloaded
attr title "Total of Bytes Downloaded, vector"
attr unit B
1952	406062 3935 9984891 238399786 36017.418569027347 36251.165000429286 96 32768 3145728 152567808 3.2162433099366e+14
vector 1991  BasicTopology.peer[45].bitTorrentApp.bitTorrentClient.contentManager_51  PiecesDownloaded:vector  ETV
attr source ContentManager_PieceDownloaded
attr title "Pieces Downloaded, vector"
1991	441902 426 10252524 231312898 36017.752239560386 36234.843898996756 12 0 11 66 506
vector 1697  BasicTopology.peer[8].bitTorrentApp.bitTorrentClient.contentManager_51  TotalBytesUploaded:vector  ETV
attr source ContentManager_TotalBytesUploaded
attr title "Total of Bytes Uploaded, vector"
attr unit B
1697	137980 5171 10453895 230993473 36017.990733452652 36234.286359973465 127 32768 4161536 266338304 7.4182675136512e+14
vector 2016  BasicTopology.peer[48].bitTorrentApp.bitTorrentClient.contentManager_51  TotalBytesDownloaded:vector  ETV
attr source ContentManager_TotalBytesDownloaded
attr title "Total of Bytes Downloaded, vector"
attr unit B
2016	460310 4339 10792375 226355680 36018.284549714244 36226.832323240926 105 32768 3440640 182353920 4.2026791862272e+14
vector 1896  BasicTopology.peer[33].bitTorrentApp.bitTorrentClient.contentManager_51  TotalBytesDownloaded:vector  ETV
attr source ContentManager_TotalBytesDownloaded