file 478985 1593887681                                          
version 2
run Test-1-20200525-12:22:27-6516
attr configname Test
attr datetime 20200525-12:22:27
attr experiment "\"Simulation Test\""
attr inifile BasicConfig.ini
attr iterationvars ""
attr iterationvars2 $repetition=1
attr measurement "\"Peers: $peers, Rate: $rate\""
attr network BasicTopology
attr processid 6516
attr repetition 1
attr replication #1
attr resultdir results
attr runnumber 1
attr seedset 1
vector 3  BasicTopology.peer[1].bitTorrentApp.bitTorrentClient  DownloadComplete_Test:vector  ETV
attr source BitTorrentClient_DownloadComplete_Test
attr title "Descargas completas (prueba), vector"
3	42216 65 135 179326122 36001 36155.846227399362 2 36001 36155.846227399 72156.846227399 2603317217.4193
vector 5  BasicTopology.peer[2].bitTorrentApp.bitTorrentClient  DownloadComplete_Test:vector  ETV
attr source BitTorrentClient_DownloadComplete_Test
attr title "Descargas completas (prueba), vector"
5	42281 65 136 227954516 36001 36220.163660864814 2 36001 36220.163660865 72221.163660865 2607972256.6198
vector 7  BasicTopology.peer[3].bitTorrentApp.bitTorrentClient  DownloadComplete_Test:vector  ETV
attr source BitTorrentClient_DownloadComplete_Test
attr title "Descargas completas (prueba), vector"
7	42346 65 137 153890004 36001 36132.899674232122 2 36001 36132.899674232 72133.899674232 2601658439.8681
vector 9  BasicTopology.peer[4].bitTorrentApp.bitTorrentClient  DownloadComplete_Test:vector  ETV
attr source BitTorrentClient_DownloadComplete_Test
attr title "Descargas completas (prueba), vector"
9	42411 65 138 203896197 36001 36183.712859747362 2 36001 36183.712859747 72184.712859747 2605333077.3166
vector 11  BasicTopology.peer[5].bitTorrentApp.bitTorrentClient  DownloadComplete_Test:vector  ETV
attr source BitTorrentClient_DownloadComplete_Test
attr title "Descargas completas (prueba), vector"
11	42476 66 139 182628764 36001 36159.032641959871 2 36001 36159.03264196 72160.03264196 2603547642.6023
vector 13  BasicTopology.peer[6].bitTorrentApp.bitTorrentClient  DownloadComplete_Test:vector  ETV
attr source BitTorrentClient_DownloadComplete_Test
attr title "Descargas completas (prueba), vector"
13	42542 67 140 212253180 36001 36195.592541255955 2 36001 36195.592541256 72196.592541256 2606192920.4126
vector 15  BasicTopology.peer[7].bitTorrentApp.bitTorrentClient  DownloadComplete_Test:vector  ETV
attr source BitTorrentClient_DownloadComplete_Test
attr title "Descargas completas (prueba), vector"
15	42609 67 141 174849995 36001 36151.773241887222 2 36001 36151.773241887 72152.773241887 2603022709.5328
vector 17  BasicTopology.peer[8].bitTorrentApp.bitTorrentClient  DownloadComplete_Test:vector  ETV
attr source BitTorrentClient_DownloadComplete_Test
attr title "Descargas completas (prueba), vector"
17	42676 67 142 208613146 36001 36190.091182312555 2 36001 36190.091182313 72191.091182313 2605794700.7841
vector 19  BasicTopology.peer[9].bitTorrentApp.bitTorrentClient  DownloadComplete_Test:vector  ETV
attr source BitTorrentClient_DownloadComplete_Test
attr title "Descargas completas (prueba), vector"
19	42743 67 143 161169768 36001 36139.024468538572 2 36001 36139.024468539 72140.024468539 2602101090.5377
vector 21  BasicTopology.peer[10].bitTorrentApp.bitTorrentClient  DownloadComplete_Test:vector  ETV
attr source BitTorrentClient_DownloadComplete_Test
attr title "Descargas completas (prueba), vector"
21	42810 67 144 221268181 36001 36209.212969094768 2 36001 36209.212969095 72210.212969095 2607179104.8413
vector 23  BasicTopology.peer[11].bitTorrentApp.bitTorrentClient  DownloadComplete_Test:vector  ETV
attr source BitTorrentClient_DownloadComplete_Test
attr title "Descargas completas (prueba), vector"
23	42877 67 145 192626732 36001 36170.132083547009 2 36001 36170.132083547 72171.132083547 2604350455.9412
vector 25  BasicTopology.peer[12].bitTorrentApp.bitTorrentClient  DownloadComplete_Test:vector  ETV
attr source BitTorrentClient_DownloadComplete_Test
attr title "Descargas completas (prueba), vector"
25	42944 67 146 222250726 36001 36210.508191926103 2 36001 36210.508191926 72211.508191926 2607272904.5175
vector 27  BasicTopology.peer[13].bitTorrentApp.bitTorrentClient  DownloadComplete_Test:vector  ETV
attr source BitTorrentClient_DownloadComplete_Test
attr title "Descargas completas (prueba), vector"
27	43011 67 147 207754499 36001 36188.937076073443 2 36001 36188.937076073 72189.937076073 2605711167.696
vector 29  BasicTopology.peer[14].bitTorrentApp.bitTorrentClient  DownloadComplete_Test:vector  ETV
attr source BitTorrentClient_DownloadComplete_Test
attr title "Descargas completas (prueba), vector"
29	43078 67 148 213152350 36001 36196.903350412471 2 36001 36196.903350412 72197.903350412 2606287813.1591
vector 31  BasicTopology.peer[15].bitTorrentApp.bitTorrentClient  DownloadComplete_Test:vector  ETV
attr source BitTorrentClient_DownloadComplete_Test
attr title "Descargas completas (prueba), vector"
31	43145 67 149 206006197 36001 36186.640219753006 2 36001 36186.640219753 72187.640219753 2605544931.3938
vector 33  BasicTopology.peer[16].bitTorrentApp.bitTorrentClient  DownloadComplete_Test:vector  ETV
attr source BitTorrentClient_DownloadComplete_Test
attr title "Descargas completas (prueba), vector"
33	43212 67 150 210938653 36001 36193.536355840774 2 36001 36193.536355841 72194.536355841 2606044074.9416
vector 35  BasicTopology.peer[17].bitTorrentApp.bitTorrentClient  DownloadComplete_Test:vector  ETV
attr source BitTorrentClient_DownloadComplete_Test
attr title "Descargas completas (prueba), vector"
35	43279 67 151 192885664 36001 36170.392156026617 2 36001 36170.392156027 72171.392156027 2604369269.7208
vector 37  BasicTopology.peer[18].bitTorrentApp.bitTorrentClient  DownloadComplete_Test:vector  ETV
attr source BitTorrentClient_DownloadComplete_Test
attr title "Descargas completas (prueba), vector"
37	43346 67 152 193475115 36001 36171.037274738907 2 36001 36171.037274739 72172.037274739 2604415938.5306
vector 39  BasicTopology.peer[19].bitTorrentApp.bitTorrentClient  DownloadComplete_Test:vector  ETV
attr source BitTorrentClient_DownloadComplete_Test
attr title "Descargas completas (prueba), vector"
39	43413 67 153 206292205 36001 36187.075376682967 2 36001 36187.075376683 72188.075376683 2605576425.3177
vector 41  BasicTopology.peer[20].bitTorrentApp.bitTorrentClient  DownloadComplete_Test:vector  ETV
attr source BitTorrentClient_DownloadComplete_Test
attr title "Descargas completas (prueba), vector"
41	43480 67 154 227600760 36001 36219.363107082813 2 36001 36219.363107083 72220.363107083 2607914264.8827
vector 43  BasicTopology.peer[21].bitTorrentApp.bitTorrentClient  DownloadComplete_Test:vector  ETV
attr source BitTorrentClient_DownloadComplete_Test
attr title "Descargas completas (prueba), vector"
43	43547 67 155 134382301 36001 36115.971025054967 2 36001 36115.971025055 72116.971025055 2600435364.0826
vector 45  BasicTopology.peer[22].bitTorrentApp.bitTorrentClient  DownloadComplete_Test:vector  ETV
attr source BitTorrentClient_DownloadComplete_Test
attr title "Descargas completas (prueba), vector"
45	43614 66 156 222660255 36001 36211.153051950307 2 36001 36211.15305195 72212.15305195 2607319606.3517
vector 47  BasicTopology.peer[23].bitTorrentApp.bitTorrentClient  DownloadComplete_Test:vector  ETV
attr source BitTorrentClient_DownloadComplete_Test
attr title "Descargas completas (prueba), vector"
47	43680 67 157 185682399 36001 36162.382477829124 2 36001 36162.382477829 72163.382477829 2603789907.4728
vector 49  BasicTopology.peer[24].bitTorrentApp.bitTorrentClient  DownloadComplete_Test:vector  ETV
attr source BitTorrentClient_DownloadComplete_Test
attr title "Descargas completas (prueba), vector"
49	43747 67 158 154723525 36001 36133.612632772389 2 36001 36133.612632772 72134.612632772 2601709962.8952
vector 51  BasicTopology.peer[25].bitTorrentApp.bitTorrentClient  DownloadComplete_Test:vector  ETV
attr source BitTorrentClient_DownloadComplete_Test
attr title "Descargas completas (prueba), vector"
51	43814 67 159 200588089 36001 36179.355203989209 2 36001 36179.355203989 72180.355203989 2605017743.9764
vector 53  BasicTopology.peer[26].bitTorrentApp.bitTorrentClient  DownloadComplete_Test:vector  ETV
attr source BitTorrentClient_DownloadComplete_Test
attr title "Descargas completas (prueba), vector"
53	43881 67 160 222837059 36001 36211.425928895357 2 36001 36211.425928895 72212.425928895 2607339368.8038
vector 55  BasicTopology.peer[27].bitTorrentApp.bitTorrentClient  DownloadComplete_Test:vector  ETV
attr source BitTorrentClient_DownloadComplete_Test
attr title "Descargas completas (prueba), vector"
55	43948 67 161 191356722 36001 36168.663276744448 2 36001 36168.663276744 72169.663276744 2604244204.2265
vector 57  BasicTopology.peer[28].bitTorrentApp.bitTorrentClient  DownloadComplete_Test:vector  ETV
attr source BitTorrentClient_DownloadComplete_Test
attr title "Descargas completas (prueba), vector"
57	44015 65 162 225943937 36001 36216.185332799834 2 36001 36216.1853328 72217.1853328 2607684081.0597
vector 59  BasicTopology.peer[29].bitTorrentApp.bitTorrentClient  DownloadComplete_Test:vector  ETV
attr source BitTorrentClient_DownloadComplete_Test
attr title "Descargas completas (prueba), vector"
59	44080 67 163 196010433 36001 36174.008611526057 2 36001 36174.008611526 72175.008611526 2604630900.0268
vector 61  BasicTopology.peer[30].bitTorrentApp.bitTorrentClient  DownloadComplete_Test:vector  ETV
attr source BitTorrentClient_DownloadComplete_Test
attr title "Descargas completas (prueba), vector"
61	44147 67 164 229221405 36001 36223.212433927383 2 36001 36223.212433927 72224.212433927 2608193120.0334
vector 63  BasicTopology.peer[31].bitTorrentApp.bitTorrentClient  DownloadComplete_Test:vector  ETV
attr source BitTorrentClient_DownloadComplete_Test
attr title "Descargas completas (prueba), vector"
63	44214 67 165 193146064 36001 36170.664220657529 2 36001 36170.664220658 72171.664220658 2604388951.1636
vector 65  BasicTopology.peer[32].bitTorrentApp.bitTorrentClient  DownloadComplete_Test:vector  ETV
attr source BitTorrentClient_DownloadComplete_Test
attr title "Descargas completas (prueba), vector"
65	44281 67 166 233907606 36001 36238.594533256439 2 36001 36238.594533256 72239.594533256 2609307734.7457
vector 67  BasicTopology.peer[33].bitTorrentApp.bitTorrentClient  DownloadComplete_Test:vector  ETV
attr source BitTorrentClient_DownloadComplete_Test
attr title "Descargas completas (prueba), vector"
67	44348 67 167 230831213 36001 36227.358555607363 2 36001 36227.358555607 72228.358555607 2608493508.9165
vector 69  BasicTopology.peer[34].bitTorrentApp.bitTorrentClient  DownloadComplete_Test:vector  ETV
attr source BitTorrentClient_DownloadComplete_Test
attr title "Descargas completas (prueba), vector"
69	44415 67 168 235612061 36001 36303.616358064644 2 36001 36303.616358065 72304.616358065 2614024561.6736
vector 71  BasicTopology.peer[35].bitTorrentApp.bitTorrentClient  DownloadComplete_Test:vector  ETV
attr source BitTorrentClient_DownloadComplete_Test
attr title "Descargas completas (prueba), vector"
71	44482 67 169 222730037 36001 36211.260219361747 2 36001 36211.260219362 72212.260219362 2607327367.6743
vector 73  BasicTopology.peer[36].bitTorrentApp.bitTorrentClient  DownloadComplete_Test:vector  ETV
attr source BitTorrentClient_DownloadComplete_Test
attr title "Descargas completas (prueba), vector"
73	44549 67 170 225516673 36001 36215.577049666109 2 36001 36215.577049666 72216.577049666 2607640022.0403
vector 75  BasicTopology.peer[37].bitTorrentApp.bitTorrentClient  DownloadComplete_Test:vector  ETV
attr source BitTorrentClient_DownloadComplete_Test
attr title "Descargas completas (prueba), vector"
75	44616 67 171 229454016 36001 36223.622142931078 2 36001 36223.622142931 72224.622142931 2608222802.1538
vector 77  BasicTopology.peer[38].bitTorrentApp.bitTorrentClient  DownloadComplete_Test:vector  ETV
attr source BitTorrentClient_DownloadComplete_Test
attr title "Descargas completas (prueba), vector"
77	44683 67 172 194557943 36001 36172.213763557222 2 36001 36172.213763557 72173.213763557 2604501049.5565
vector 79  BasicTopology.peer[39].bitTorrentApp.bitTorrentClient  DownloadComplete_Test:vector  ETV
attr source BitTorrentClient_DownloadComplete_Test
attr title "Descargas completas (prueba), vector"
79	44750 66 173 211492070 36001 36194.451971720382 2 36001 36194.45197172 72195.45197172 2606110354.5331
vector 81  BasicTopology.peer[40].bitTorrentApp.bitTorrentClient  DownloadComplete_Test:vector  ETV
attr source BitTorrentClient_DownloadComplete_Test
attr title "Descargas completas (prueba), vector"
81	44816 67 174 231694727 36001 36230.032613012072 2 36001 36230.032613012 72231.032613012 2608687264.1399
vector 83  BasicTopology.peer[41].bitTorrentApp.bitTorrentClient  DownloadComplete_Test:vector  ETV
attr source BitTorrentClient_DownloadComplete_Test
attr title "Descargas completas (prueba), vector"
83	44883 67 175 189626210 36001 36166.644503747255 2 36001 36166.644503747 72167.644503747 2604098175.6604
vector 85  BasicTopology.peer[42].bitTorrentApp.bitTorrentClient  DownloadComplete_Test:vector  ETV
attr source BitTorrentClient_DownloadComplete_Test
attr title "Descargas completas (prueba), vector"
85	44950 67 176 203616444 36001 36183.255872951419 2 36001 36183.255872951 72184.255872951 2605300006.5674
vector 87  BasicTopology.peer[43].bitTorrentApp.bitTorrentClient  DownloadComplete_Test:vector  ETV
attr source BitTorrentClient_DownloadComplete_Test
attr title "Descargas completas (prueba), vector"
87	45017 67 177 230658813 36001 36226.733256412599 2 36001 36226.733256413 72227.733256413 2608448203.4313
vector 89  BasicTopology.peer[44].bitTorrentApp.bitTorrentClient  DownloadComplete_Test:vector  ETV
attr source BitTorrentClient_DownloadComplete_Test
attr title "Descargas completas (prueba), vector"
89	45084 67 178 230316807 36001 36225.645859035792 2 36001 36225.645859036 72226.645859036 2608369418.9043
vector 91  BasicTopology.peer[45].bitTorrentApp.bitTorrentClient  DownloadComplete_Test:vector  ETV
attr source BitTorrentClient_DownloadComplete_Test
attr title "Descargas completas (prueba), vector"
91	45151 66 179 223245451 36001 36211.99571421786 2 36001 36211.995714218 72212.995714218 2607380634.6065
vector 93  BasicTopology.peer[46].bitTorrentApp.bitTorrentClient  DownloadComplete_Test:vector  ETV
attr source BitTorrentClient_DownloadComplete_Test
attr title "Descargas completas (prueba), vector"
93	45217 67 180 228082259 36001 36220.673398727803 2 36001 36220.673398728 72221.673398728 2608009182.4573
vector 95  BasicTopology.peer[47].bitTorrentApp.bitTorrentClient  DownloadComplete_Test:vector  ETV
attr source BitTorrentClient_DownloadComplete_Test
attr title "Descargas completas (prueba), vector"
95	45284 67 181 225891959 36001 36216.126708203567 2 36001 36216.126708204 72217.126708204 2607679834.7447
vector 97  BasicTopology.peer[48].bitTorrentApp.bitTorrentClient  DownloadComplete_Test:vector  ETV
attr source BitTorrentClient_DownloadComplete_Test
attr title "Descargas completas (prueba), vector"
97	45351 67 182 212925590 36001 36196.510560908821 2 36001 36196.510560909 72197.510560909 2606259377.786
vector 99  BasicTopology.peer[49].bitTorrentApp.bitTorrentClient  DownloadComplete_Test:vector  ETV
attr source BitTorrentClient_DownloadComplete_Test
attr title "Descargas completas (prueba), vector"
99	45418 67 183 177342642 36001 36153.986399727645 2 36001 36153.986399728 72154.986399728 2603182733.5917
vector 1633  BasicTopology.peer[0].bitTorrentApp.bitTorrentClient.contentManager_51  TotalBytesUploaded:vector  ETV
attr source ContentManager_TotalBytesUploaded
attr title "Total of Bytes Uploaded, vector"
attr unit B
1633	45485 12482 699710 232956042 36001.601844727232 36235.177800215103 307 32768 10059776 1549205504 1.040669502079e+16
vector 1768  BasicTopology.peer[17].bitTorrentApp.bitTorrentClient.contentManager_51  TotalBytesDownloaded:vector  ETV
attr source ContentManager_TotalBytesDownloaded
attr title "Total of Bytes Downloaded, vector"
attr unit B
1768	195262 3915 887223 192885664 36001.769785827989 36170.392156026617 96 32768 3145728 152567808 3.2162433099366e+14
vector 1800  BasicTopology.peer[21].bitTorrentApp.bitTorrentClient.contentManager_51  TotalBytesDownloaded:vector  ETV
attr source ContentManager_TotalBytesDownloaded
attr title "Total of Bytes Downloaded, vector"
attr unit B
1800	229564 3881 3118649 134382301 36005.075234531705 36115.971025054967 96 32768 3145728 152567808 3.2162433099366e+14
vector 1656  BasicTopology.peer[3].bitTorrentApp.bitTorrentClient.contentManager_51  TotalBytesDownloaded:vector  ETV
attr source ContentManager_TotalBytesDownloaded
attr title "Total of Bytes Downloaded, vector"
attr unit B
1656	75514 3893 3356124 153890004 36005.635469731346 36132.899674232122 96 32768 3145728 152567808 3.2162433099366e+14
vector 1799  BasicTopology.peer[21].bitTorrentApp.bitTorrentClient.contentManager_51  PiecesDownloaded:vector  ETV
attr source ContentManager_PieceDownloaded
attr title "Pieces Downloaded, vector"
1799	229144 420 3764985 134382301 36006.527672721739 36115.971025054967 12 0 11 66 506
vector 1801  BasicTopology.peer[21].bitTorrentApp.bitTorrentClient.contentManager_51  TotalBytesUploaded:vector  ETV
attr source ContentManager_TotalBytesUploaded
attr title "Total of Bytes Uploaded, vector"
attr unit B
1801	233445 10021 3789084 214931826 36006.553670109813 36199.545252960206 246 32768 8060928 995524608 5.3607752416625e+15
vector 1767  BasicTopology.peer[17].bitTorrentApp.bitTorrentClient.contentManager_51  PiecesDownloaded:vector  ETV
attr source ContentManager_PieceDownloaded
attr title "Pieces Downloaded, vector"
1767	194835 427 4188880 192885664 36007.21208882575 36170.392156026617 12 0 11 66 506
vector 1769  BasicTopology.peer[17].bitTorrentApp.bitTorrentClient.contentManager_51  TotalBytesUploaded:vector  ETV
attr source ContentManager_TotalBytesUploaded
attr title "Total of Bytes Uploaded, vector"
attr unit B
1769	199177 4859 4217948 125759293 36007.252368577829 36109.206861981781 120 32768 3932160 237895680 6.2622770659328e+14
vector 1655  BasicTopology.peer[3].bitTorrentApp.bitTorrentClient.contentManager_51  PiecesDownloaded:vector  ETV
attr source ContentManager_PieceDownloaded
attr title "Pieces Downloaded, vector"
1655	75092 422 4301799 153890004 36007.36992637646 36132.899674232122 12 0 11 66 506
vector 1680  BasicTopology.peer[6].bitTorrentApp.bitTorrentClient.contentManager_51  TotalBytesDownloaded:vector  ETV
attr source ContentManager_TotalBytesDownloaded
attr title "Total of Bytes Downloaded, vector"
attr unit B
1680	109654 3934 4351718 212253180 36007.44169358721 36195.592541255955 96 32768 3145728 152567808 3.2162433099366e+14
vector 1657  BasicTopology.peer[3].bitTorrentApp.bitTorrentClient.contentManager_51  TotalBytesUploaded:vector  ETV
attr source ContentManager_TotalBytesUploaded
attr title "Total of Bytes Uploaded, vector"
attr unit B
1657	79407 10536 4358162 200959837 36007.453291650974 36179.828561974341 258 32768 8454144 1094811648 6.1824218127401e+15
vector 1896  BasicTopology.peer[33].bitTorrentApp.bitTorrentClient.contentManager_51  TotalBytesDownloaded:vector  ETV
attr source ContentManager_TotalBytesDownloaded
attr title "Total of Bytes Downloaded, vector"
attr unit B
1896	327042 3928 4604254 230831213 36007.877573271177 36227.358555607363 96 32768 3145728 152567808 3.2162433099366e+14
vector 1648  BasicTopology.peer[2].bitTorrentApp.bitTorrentClient.contentManager_51  TotalBytesDownloaded:vector  ETV
attr source ContentManager_TotalBytesDownloaded
attr title "Total of Bytes Downloaded, vector"
attr unit B
1648	66957 3933 4621875 227954516 36007.913842342263 36220.163660864814 96 32768 3145728 152567808 3.2162433099366e+14
vector 1928  BasicTopology.peer[37].bitTorrentApp.bitTorrentClient.contentManager_51  TotalBytesDownloaded:vector  ETV
attr source ContentManager_TotalBytesDownloaded
attr title "Total of Bytes Downloaded, vector"
attr unit B
1928	356582 5118 5160431 229454016 36008.722629116074 36223.622142931078 124 32768 4063232 253952000 6.90684428288e+14
vector 1640  BasicTopology.peer[1].bitTorrentApp.bitTorrentClient.contentManager_51  TotalBytesDownloaded:vector  ETV
attr source ContentManager_TotalBytesDownloaded
attr title "Total of Bytes Downloaded, vector"
attr unit B
1640	58395 3934 5202701 179326122 36008.783472907748 36155.846227399362 96 32768 3145728 152567808 3.2162433099366e+14
vector 1744  BasicTopology.peer[14].bitTorrentApp.bitTorrentClient.contentManager_51  TotalBytesDownloaded:vector  ETV
attr source ContentManager_TotalBytesDownloaded
attr title "Total of Bytes Downloaded, vector"
attr unit B
1744	176565 4028 5386781 213152350 36008.999317408823 36196.903350412471 98 32768 3211264 158957568 3.4203938429338e+14
vector 1639  BasicTopology.peer[1].bitTorrentApp.bitTorrentClient.contentManager_51  PiecesDownloaded:vector  ETV
attr source ContentManager_PieceDownloaded
attr title "Pieces Downloaded, vector"
1639	57967 428 6330195 179326122 36010.424241128638 36155.846227399362 12 0 11 66 506
vector 1641  BasicTopology.peer[1].bitTorrentApp.bitTorrentClient.contentManager_51  TotalBytesUploaded:vector  ETV
attr source ContentManager_TotalBytesUploaded
attr title "Total of Bytes Uploaded, vector"
attr unit B
1641	62329 4199 6356428 101907544 36010.452201836638 36090.497918348471 104 32768 3407872 178913280 4.0842991501312e+14
vector 1672  BasicTopology.peer[5].bitTorrentApp.bitTorrentClient.contentManager_51  TotalBytesDownloaded:vector  ETV
attr source ContentManager_TotalBytesDownloaded
attr title "Total of Bytes Downloaded, vector"
attr unit B
1672	100498 4255 6586999 205240388 36010.702209540825 36185.345830908688 104 32768 3407872 178913280 4.0842991501312e+14
vector 1679  BasicTopology.peer[6].bitTorrentApp.bitTorrentClient.contentManager_51  PiecesDownloaded:vector  ETV
attr source ContentManager_PieceDownloaded
attr title "Pieces Downloaded, vector"
1679	109227 427 6944863 212253180 36011.135299378307 36195.592541255955 12 0 11 66 506
vector 1681  BasicTopology.peer[6].bitTorrentApp.bitTorrentClient.contentManager_51  TotalBytesUploaded:vector  ETV
attr source ContentManager_TotalBytesUploaded
attr title "Total of Bytes Uploaded, vector"
attr unit B
1681	113588 3201 7009038 213442508 36011.205210342617 36197.311153714622 80 32768 2621440 106168320 1.8670222835712e+14
vector 1927  BasicTopology.peer[37].bitTorrentApp.bitTorrentClient.contentManager_51  PiecesDownloaded:vector  ETV
attr source ContentManager_PieceDownloaded
attr title "Pieces Downloaded, vector"
1927	356152 430 7149001 229454016 36011.445846667831 36223.622142931078 12 0 11 66 506
vector 1929  BasicTopology.peer[37].bitTorrentApp.bitTorrentClient.contentManager_51  TotalBytesUploaded:vector  ETV
attr source ContentManager_TotalBytesUploaded
attr title "Total of Bytes Uploaded, vector"
attr unit B
1929	361700 4003 7170825 202130339 36011.47862912332 36181.377783825439 99 32768 3244032 162201600 3.525631279104e+14
vector 1743  BasicTopology.peer[14].bitTorrentApp.bitTorrentClient.contentManager_51  PiecesDownloaded:vector  ETV
attr source ContentManager_PieceDownloaded
attr title "Pieces Downloaded, vector"
1743	176136 429 7369168 213152350 36011.854902399195 36196.903350412471 12 0 11 66 506
vector 1745  BasicTopology.peer[14].bitTorrentApp.bitTorrentClient.contentManager_51  TotalBytesUploaded:vector  ETV
attr source ContentManager_TotalBytesUploaded
attr title "Total of Bytes Uploaded, vector"
attr unit B
1745	180593 2436 7399905 235487875 36011.910224003962 36301.131957026666 61 32768 1998848 61964288 83248277356544
vector 1792  BasicTopology.peer[20].bitTorrentApp.bitTorrentClient.contentManager_51  TotalBytesDownloaded:vector  ETV
attr source ContentManager_TotalBytesDownloaded
attr title "Total of Bytes Downloaded, vector"
attr unit B
1792	216976 3914 7562166 227600760 36012.180981929563 36219.363107082813 96 32768 3145728 152567808 3.2162433099366e+14
vector 1856  BasicTopology.peer[28].bitTorrentApp.bitTorrentClient.contentManager_51  TotalBytesDownloaded:vector  ETV
attr source ContentManager_TotalBytesDownloaded
attr title "Total of Bytes Downloaded, vector"
attr unit B
1856	286604 4038 7736069 225943937 36012.477481280986 36216.185332799834 98 32768 3211264 158957568 3.4203938429338e+14
vector 1944  BasicTopology.peer[39].bitTorrentApp.bitTorrentClient.contentManager_51  TotalBytesDownloaded:vector  ETV
attr source ContentManager_TotalBytesDownloaded
attr title "Total of Bytes Downloaded, vector"
attr unit B
1944	371589 3948 7823063 211492070 36012.624059307336 36194.451971720382 96 32768 3145728 152567808 3.2162433099366e+14
vector 1664  BasicTopology.peer[4].bitTorrentApp.bitTorrentClient.contentManager_51  TotalBytesDownloaded:vector  ETV
attr source ContentManager_TotalBytesDownloaded
attr title "Total of Bytes Downloaded, vector"
attr unit B
1664	90371 3931 7885259 203896197 36012.678502619248 36183.712859747362 96 32768 3145728 152567808 3.2162433099366e+14
vector 2000  BasicTopology.peer[46].bitTorrentApp.bitTorrentClient.contentManager_51  TotalBytesDownloaded:vector  ETV
attr source ContentManager_TotalBytesDownloaded
attr title "Total of Bytes Downloaded, vector"
attr unit B
2000	449986 4121 8110420 228082259 36012.90453551038 36220.673398727803 100 32768 3276800 165478400 3.633005461504e+14
vector 1776  BasicTopology.peer[18].bitTorrentApp.bitTorrentClient.contentManager_51  TotalBytesDownloaded:vector  ETV
attr source ContentManager_TotalBytesDownloaded
attr title "Total of Bytes Downloaded, vector"
attr unit B
1776	204462 4257 8296000 197966969 36013.060135519793 36176.191896889487 104 32768 3407872 178913280 4.0842991501312e+14
vector 1840  BasicTopology.peer[26].bitTorrentApp.bitTorrentClient.contentManager_51  TotalBytesDownloaded:vector  ETV
attr source ContentManager_TotalBytesDownloaded
attr title "Total of Bytes Downloaded, vector"
attr unit B
1840	273092 3935 8510868 222837059 36013.237950748352 36211.425928895357 96 32768 3145728 152567808 3.2162433099366e+14
vector 1712  BasicTopology.peer[10].bitTorrentApp.bitTorrentClient.contentManager_51  TotalBytesDownloaded:vector  ETV
attr source ContentManager_TotalBytesDownloaded
attr title "Total of Bytes Downloaded, vector"
attr unit B
1712	139166 3940 8714247 221268181 36013.475610925885 36209.212969094768 96 32768 3145728 152567808 3.2162433099366e+14
vector 1647  BasicTopology.peer[2].bitTorrentApp.bitTorrentClient.contentManager_51  PiecesDownloaded:vector  ETV
attr source ContentManager_PieceDownloaded
attr title "Pieces Downloaded, vector"
1647	66528 429 8762817 227954516 36013.532861797853 36220.163660864814 12 0 11 66 506
vector 1649  BasicTopology.peer[2].bitTorrentApp.bitTorrentClient.contentManager_51  TotalBytesUploaded:vector  ETV
attr source ContentManager_TotalBytesUploaded
attr title "Total of Bytes Uploaded, vector"
attr unit B
1649	70890 4202 8781523 151546151 36013.547685464755 36130.928060569107 104 32768 3407872 178913280 4.0842991501312e+14
vector 1704  BasicTopology.peer[9].bitTorrentApp.bitTorrentClient.contentManager_51  TotalBytesDownloaded:vector  ETV
attr source ContentManager_TotalBytesDownloaded
attr title "Total of Bytes Downloaded, vector"
attr unit B
1704	131204 3922 8844635 161169768 36013.627918918612 36139.024468538572 96 32768 3145728 152567808 3.2162433099366e+14
vector 1760  BasicTopology.peer[16].bitTorrentApp.bitTorrentClient.contentManager_51  TotalBytesDownloaded:vector  ETV
attr source ContentManager_TotalBytesDownloaded
attr title "Total of Bytes Downloaded, vector"
attr unit B
1760	188957 3942 8937561 210938653 36013.750748976312 36193.536355840774 96 32768 3145728 152567808 3.2162433099366e+14
vector 1736  BasicTopology.peer[13].bitTorrentApp.bitTorrentClient.contentManager_51  TotalBytesDownloaded:vector  ETV
attr source ContentManager_TotalBytesDownloaded
attr title "Total of Bytes Downloaded, vector"
attr unit B
1736	170592 4361 9099526 211227018 36014.013944372004 36194.06341907749 106 32768 3473408 185827328 4.3233248175718e+14
vector 1663  BasicTopology.peer[4].bitTorrentApp.bitTorrentClient.contentManager_51  PiecesDownloaded:vector  ETV
attr source ContentManager_PieceDownloaded
attr title "Pieces Downloaded, vector"
1663	89943 428 9362698 203896197 36014.275067165613 36183.712859747362 12 0 11 66 506
vector 1665  BasicTopology.peer[4].bitTorrentApp.bitTorrentClient.contentManager_51  TotalBytesUploaded:vector  ETV
attr source ContentManager_TotalBytesUploaded
attr title "Total of Bytes Uploaded, vector"
attr unit B
1665	94302 5770 9394212 187755573 36014.298991089542 36164.750359481642 141 32768 4620288 328040448 1.0140106400727e+15
vector 1832  BasicTopology.peer[25].bitTorrentApp.bitTorrentClient.contentManager_51  TotalBytesDownloaded:vector  ETV
attr source ContentManager_TotalBytesDownloaded
attr title "Total of Bytes Downloaded, vector"
attr unit B
1832	267978 4198 9526374 200588089 36014.404901987031 36179.355203989209 102 32768 3342336 172130304 3.8542499643392e+14
vector 1895  BasicTopology.peer[33].bitTorrentApp.bitTorrentClient.contentManager_51  PiecesDownloaded:vector  ETV
attr source ContentManager_PieceDownloaded
attr title "Pieces Downloaded, vector"
1895	326614 428 9840829 230831213 36014.748695934543 36227.358555607363 12 0 11 66 506
vector 1897  BasicTopology.peer[33].bitTorrentApp.bitTorrentClient.contentManager_51  TotalBytesUploaded:vector  ETV
attr source ContentManager_TotalBytesUploaded
attr title "Total of Bytes Uploaded, vector"
attr unit B
1897	330970 5117 9869530 230870093 36014.787340570663 36227.421164391378 126 32768 4128768 262176768 7.2450836948582e+14
vector 1960  BasicTopology.peer[41].bitTorrentApp.bitTorrentClient.contentManager_51  TotalBytesDownloaded:vector  ETV
attr source ContentManager_TotalBytesDownloaded
attr title "Total of Bytes Downloaded, vector"
attr unit B