file 471843 1593887682                                          
version 2
run Test-12-20200525-12:23:35-6685
attr configname Test
attr datetime 20200525-12:23:35
attr experiment "\"Simulation Test\""
attr inifile BasicConfig.ini
attr iterationvars ""
attr iterationvars2 $repetition=12
attr measurement "\"Peers: $peers, Rate: $rate\""
attr network BasicTopology
attr processid 6685
attr repetition 12
attr replication #12
attr resultdir results
attr runnumber 12
attr seedset 12
vector 3  BasicTopology.peer[1].bitTorrentApp.bitTorrentClient  DownloadComplete_Test:vector  ETV
attr source BitTorrentClient_DownloadComplete_Test
attr title "Descargas completas (prueba), vector"
3	41776 65 135 207765124 36001 36187.809397267583 2 36001 36187.809397268 72188.809397268 2605629549.973
vector 5  BasicTopology.peer[2].bitTorrentApp.bitTorrentClient  DownloadComplete_Test:vector  ETV
attr source BitTorrentClient_DownloadComplete_Test
attr title "Descargas completas (prueba), vector"
5	41841 64 136 244019901 36001 36305.246161760409 2 36001 36305.24616176 72306.24616176 2614142899.866
vector 7  BasicTopology.peer[3].bitTorrentApp.bitTorrentClient  DownloadComplete_Test:vector  ETV
attr source BitTorrentClient_DownloadComplete_Test
attr title "Descargas completas (prueba), vector"
7	41905 64 137 97921749 36001 36082.246282202679 2 36001 36082.246282203 72083.246282203 2598000497.7696
vector 9  BasicTopology.peer[4].bitTorrentApp.bitTorrentClient  DownloadComplete_Test:vector  ETV
attr source BitTorrentClient_DownloadComplete_Test
attr title "Descargas completas (prueba), vector"
9	41969 65 138 207414663 36001 36187.385385394259 2 36001 36187.385385394 72188.385385394 2605598862.031
vector 11  BasicTopology.peer[5].bitTorrentApp.bitTorrentClient  DownloadComplete_Test:vector  ETV
attr source BitTorrentClient_DownloadComplete_Test
attr title "Descargas completas (prueba), vector"
11	42034 67 139 183726814 36001 36160.117461373963 2 36001 36160.117461374 72161.117461374 2603626095.8204
vector 13  BasicTopology.peer[6].bitTorrentApp.bitTorrentClient  DownloadComplete_Test:vector  ETV
attr source BitTorrentClient_DownloadComplete_Test
attr title "Descargas completas (prueba), vector"
13	42101 67 140 218976675 36001 36202.838401303356 2 36001 36202.838401303 72203.838401303 2606717509.3109
vector 15  BasicTopology.peer[7].bitTorrentApp.bitTorrentClient  DownloadComplete_Test:vector  ETV
attr source BitTorrentClient_DownloadComplete_Test
attr title "Descargas completas (prueba), vector"
15	42168 67 141 233694072 36001 36224.700974131337 2 36001 36224.700974131 72225.700974131 2608300961.6652
vector 17  BasicTopology.peer[8].bitTorrentApp.bitTorrentClient  DownloadComplete_Test:vector  ETV
attr source BitTorrentClient_DownloadComplete_Test
attr title "Descargas completas (prueba), vector"
17	42235 67 142 206061945 36001 36185.794366076349 2 36001 36185.794366076 72186.794366076 2605483714.9039
vector 19  BasicTopology.peer[9].bitTorrentApp.bitTorrentClient  DownloadComplete_Test:vector  ETV
attr source BitTorrentClient_DownloadComplete_Test
attr title "Descargas completas (prueba), vector"
19	42302 66 143 222700964 36001 36207.814753730076 2 36001 36207.81475373 72208.81475373 2607077850.2404
vector 21  BasicTopology.peer[10].bitTorrentApp.bitTorrentClient  DownloadComplete_Test:vector  ETV
attr source BitTorrentClient_DownloadComplete_Test
attr title "Descargas completas (prueba), vector"
21	42368 67 144 188507960 36001 36165.475032078125 2 36001 36165.475032078 72166.475032078 2604013585.2959
vector 23  BasicTopology.peer[11].bitTorrentApp.bitTorrentClient  DownloadComplete_Test:vector  ETV
attr source BitTorrentClient_DownloadComplete_Test
attr title "Descargas completas (prueba), vector"
23	42435 67 145 243971862 36001 36304.977794971862 2 36001 36304.977794972 72305.977794972 2614123413.6934
vector 25  BasicTopology.peer[12].bitTorrentApp.bitTorrentClient  DownloadComplete_Test:vector  ETV
attr source BitTorrentClient_DownloadComplete_Test
attr title "Descargas completas (prueba), vector"
25	42502 67 146 217399438 36001 36200.487986053635 2 36001 36200.487986054 72201.487986054 2606547331.4284
vector 27  BasicTopology.peer[13].bitTorrentApp.bitTorrentClient  DownloadComplete_Test:vector  ETV
attr source BitTorrentClient_DownloadComplete_Test
attr title "Descargas completas (prueba), vector"
27	42569 67 147 241265588 36001 36247.160556605902 2 36001 36247.160556606 72248.160556606 2609928649.4164
vector 29  BasicTopology.peer[14].bitTorrentApp.bitTorrentClient  DownloadComplete_Test:vector  ETV
attr source BitTorrentClient_DownloadComplete_Test
attr title "Descargas completas (prueba), vector"
29	42636 66 148 239552429 36001 36237.794069829593 2 36001 36237.79406983 72238.79406983 2609249720.0474
vector 31  BasicTopology.peer[15].bitTorrentApp.bitTorrentClient  DownloadComplete_Test:vector  ETV
attr source BitTorrentClient_DownloadComplete_Test
attr title "Descargas completas (prueba), vector"
31	42702 67 149 232668769 36001 36222.579530507169 2 36001 36222.579530507 72223.579530507 2608147268.8439
vector 33  BasicTopology.peer[16].bitTorrentApp.bitTorrentClient  DownloadComplete_Test:vector  ETV
attr source BitTorrentClient_DownloadComplete_Test
attr title "Descargas completas (prueba), vector"
33	42769 66 150 223022204 36001 36208.29746963768 2 36001 36208.297469638 72209.297469638 2607112806.6498
vector 35  BasicTopology.peer[17].bitTorrentApp.bitTorrentClient  DownloadComplete_Test:vector  ETV
attr source BitTorrentClient_DownloadComplete_Test
attr title "Descargas completas (prueba), vector"
35	42835 67 151 212562737 36001 36194.016231077445 2 36001 36194.016231077 72195.016231077 2606078811.9355
vector 37  BasicTopology.peer[18].bitTorrentApp.bitTorrentClient  DownloadComplete_Test:vector  ETV
attr source BitTorrentClient_DownloadComplete_Test
attr title "Descargas completas (prueba), vector"
37	42902 67 152 221249169 36001 36205.936050644046 2 36001 36205.936050644 72206.936050644 2606941806.3033
vector 39  BasicTopology.peer[19].bitTorrentApp.bitTorrentClient  DownloadComplete_Test:vector  ETV
attr source BitTorrentClient_DownloadComplete_Test
attr title "Descargas completas (prueba), vector"
39	42969 67 153 219950836 36001 36204.190750103654 2 36001 36204.190750104 72205.190750104 2606815428.8699
vector 41  BasicTopology.peer[20].bitTorrentApp.bitTorrentClient  DownloadComplete_Test:vector  ETV
attr source BitTorrentClient_DownloadComplete_Test
attr title "Descargas completas (prueba), vector"
41	43036 67 154 199426985 36001 36177.786748418489 2 36001 36177.786748418 72178.786748418 2604904255.014
vector 43  BasicTopology.peer[21].bitTorrentApp.bitTorrentClient  DownloadComplete_Test:vector  ETV
attr source BitTorrentClient_DownloadComplete_Test
attr title "Descargas completas (prueba), vector"
43	43103 67 155 237510874 36001 36231.649398461307 2 36001 36231.649398461 72232.649398461 2608804419.133
vector 45  BasicTopology.peer[22].bitTorrentApp.bitTorrentClient  DownloadComplete_Test:vector  ETV
attr source BitTorrentClient_DownloadComplete_Test
attr title "Descargas completas (prueba), vector"
45	43170 66 156 196288374 36001 36174.163678319852 2 36001 36174.16367832 72175.16367832 2604642118.8259
vector 47  BasicTopology.peer[23].bitTorrentApp.bitTorrentClient  DownloadComplete_Test:vector  ETV
attr source BitTorrentClient_DownloadComplete_Test
attr title "Descargas completas (prueba), vector"
47	43236 67 157 233013538 36001 36223.268834396392 2 36001 36223.268834396 72224.268834396 2608197206.0489
vector 49  BasicTopology.peer[24].bitTorrentApp.bitTorrentClient  DownloadComplete_Test:vector  ETV
attr source BitTorrentClient_DownloadComplete_Test
attr title "Descargas completas (prueba), vector"
49	43303 67 158 231448244 36001 36220.837864589136 2 36001 36220.837864589 72221.837864589 2608021096.6128
vector 51  BasicTopology.peer[25].bitTorrentApp.bitTorrentClient  DownloadComplete_Test:vector  ETV
attr source BitTorrentClient_DownloadComplete_Test
attr title "Descargas completas (prueba), vector"
51	43370 67 159 240006253 36001 36240.292236225921 2 36001 36240.292236226 72241.292236226 2609430782.3671
vector 53  BasicTopology.peer[26].bitTorrentApp.bitTorrentClient  DownloadComplete_Test:vector  ETV
attr source BitTorrentClient_DownloadComplete_Test
attr title "Descargas completas (prueba), vector"
53	43437 67 160 236782491 36001 36230.547418698405 2 36001 36230.547418698 72231.547418698 2608724567.2585
vector 55  BasicTopology.peer[27].bitTorrentApp.bitTorrentClient  DownloadComplete_Test:vector  ETV
attr source BitTorrentClient_DownloadComplete_Test
attr title "Descargas completas (prueba), vector"
55	43504 67 161 241664486 36001 36251.997897613624 2 36001 36251.997897614 72252.997897614 2610279352.5686
vector 57  BasicTopology.peer[28].bitTorrentApp.bitTorrentClient  DownloadComplete_Test:vector  ETV
attr source BitTorrentClient_DownloadComplete_Test
attr title "Descargas completas (prueba), vector"
57	43571 66 162 237351121 36001 36231.262398759992 2 36001 36231.26239876 72232.26239876 2608776376.0078
vector 59  BasicTopology.peer[29].bitTorrentApp.bitTorrentClient  DownloadComplete_Test:vector  ETV
attr source BitTorrentClient_DownloadComplete_Test
attr title "Descargas completas (prueba), vector"
59	43637 66 163 148229317 36001 36123.554763349996 2 36001 36123.55476335 72124.55476335 2600983209.7407
vector 61  BasicTopology.peer[30].bitTorrentApp.bitTorrentClient  DownloadComplete_Test:vector  ETV
attr source BitTorrentClient_DownloadComplete_Test
attr title "Descargas completas (prueba), vector"
61	43703 66 164 74184615 36001 36063.749612733291 2 36001 36063.749612733 72064.749612733 2596666037.1299
vector 63  BasicTopology.peer[31].bitTorrentApp.bitTorrentClient  DownloadComplete_Test:vector  ETV
attr source BitTorrentClient_DownloadComplete_Test
attr title "Descargas completas (prueba), vector"
63	43769 67 165 112211775 36001 36092.866620138396 2 36001 36092.866620138 72093.866620138 2598767021.8591
vector 65  BasicTopology.peer[32].bitTorrentApp.bitTorrentClient  DownloadComplete_Test:vector  ETV
attr source BitTorrentClient_DownloadComplete_Test
attr title "Descargas completas (prueba), vector"
65	43836 67 166 193886764 36001 36171.370495872537 2 36001 36171.370495873 72172.370495873 2604440044.5497
vector 67  BasicTopology.peer[33].bitTorrentApp.bitTorrentClient  DownloadComplete_Test:vector  ETV
attr source BitTorrentClient_DownloadComplete_Test
attr title "Descargas completas (prueba), vector"
67	43903 67 167 219608889 36001 36203.647247306398 2 36001 36203.647247306 72204.647247306 2606776075.0074
vector 69  BasicTopology.peer[34].bitTorrentApp.bitTorrentClient  DownloadComplete_Test:vector  ETV
attr source BitTorrentClient_DownloadComplete_Test
attr title "Descargas completas (prueba), vector"
69	43970 66 168 230661288 36001 36219.57093188426 2 36001 36219.570931884 72220.570931884 2607929319.4898
vector 71  BasicTopology.peer[35].bitTorrentApp.bitTorrentClient  DownloadComplete_Test:vector  ETV
attr source BitTorrentClient_DownloadComplete_Test
attr title "Descargas completas (prueba), vector"
71	44036 67 169 216431159 36001 36199.189403491079 2 36001 36199.189403491 72200.189403491 2606453314.4698
vector 73  BasicTopology.peer[36].bitTorrentApp.bitTorrentClient  DownloadComplete_Test:vector  ETV
attr source BitTorrentClient_DownloadComplete_Test
attr title "Descargas completas (prueba), vector"
73	44103 67 170 229242055 36001 36217.115575143217 2 36001 36217.115575143 72218.115575143 2607751461.5833
vector 75  BasicTopology.peer[37].bitTorrentApp.bitTorrentClient  DownloadComplete_Test:vector  ETV
attr source BitTorrentClient_DownloadComplete_Test
attr title "Descargas completas (prueba), vector"
75	44170 67 171 203712213 36001 36182.856849282169 2 36001 36182.856849282 72183.856849282 2605271130.7756
vector 77  BasicTopology.peer[38].bitTorrentApp.bitTorrentClient  DownloadComplete_Test:vector  ETV
attr source BitTorrentClient_DownloadComplete_Test
attr title "Descargas completas (prueba), vector"
77	44237 67 172 199253847 36001 36177.622109096309 2 36001 36177.622109096 72178.622109096 2604892342.4686
vector 79  BasicTopology.peer[39].bitTorrentApp.bitTorrentClient  DownloadComplete_Test:vector  ETV
attr source BitTorrentClient_DownloadComplete_Test
attr title "Descargas completas (prueba), vector"
79	44304 67 173 215359260 36001 36197.733332586273 2 36001 36197.733332586 72198.733332586 2606347899.417
vector 81  BasicTopology.peer[40].bitTorrentApp.bitTorrentClient  DownloadComplete_Test:vector  ETV
attr source BitTorrentClient_DownloadComplete_Test
attr title "Descargas completas (prueba), vector"
81	44371 67 174 136080388 36001 36112.729505777658 2 36001 36112.729505778 72113.729505778 2600201233.3575
vector 83  BasicTopology.peer[41].bitTorrentApp.bitTorrentClient  DownloadComplete_Test:vector  ETV
attr source BitTorrentClient_DownloadComplete_Test
attr title "Descargas completas (prueba), vector"
83	44438 67 175 183187512 36001 36159.488789498232 2 36001 36159.488789498 72160.488789498 2603580630.5178
vector 85  BasicTopology.peer[42].bitTorrentApp.bitTorrentClient  DownloadComplete_Test:vector  ETV
attr source BitTorrentClient_DownloadComplete_Test
attr title "Descargas completas (prueba), vector"
85	44505 67 176 202594160 36001 36181.514257261558 2 36001 36181.514257262 72182.514257262 2605173974.9485
vector 87  BasicTopology.peer[43].bitTorrentApp.bitTorrentClient  DownloadComplete_Test:vector  ETV
attr source BitTorrentClient_DownloadComplete_Test
attr title "Descargas completas (prueba), vector"
87	44572 66 177 243924364 36001 36304.174637569684 2 36001 36304.17463757 72305.17463757 2614065097.1152
vector 89  BasicTopology.peer[44].bitTorrentApp.bitTorrentClient  DownloadComplete_Test:vector  ETV
attr source BitTorrentClient_DownloadComplete_Test
attr title "Descargas completas (prueba), vector"
89	44638 67 178 215869018 36001 36198.374069983638 2 36001 36198.374069984 72199.374069984 2606394286.3105
vector 91  BasicTopology.peer[45].bitTorrentApp.bitTorrentClient  DownloadComplete_Test:vector  ETV
attr source BitTorrentClient_DownloadComplete_Test
attr title "Descargas completas (prueba), vector"
91	44705 66 179 240140848 36001 36240.893372280126 2 36001 36240.89337228 72241.89337228 2609474353.421
vector 93  BasicTopology.peer[46].bitTorrentApp.bitTorrentClient  DownloadComplete_Test:vector  ETV
attr source BitTorrentClient_DownloadComplete_Test
attr title "Descargas completas (prueba), vector"
93	44771 67 180 226276402 36001 36213.084353233862 2 36001 36213.084353234 72214.084353234 2607459479.3744
vector 95  BasicTopology.peer[47].bitTorrentApp.bitTorrentClient  DownloadComplete_Test:vector  ETV
attr source BitTorrentClient_DownloadComplete_Test
attr title "Descargas completas (prueba), vector"
95	44838 67 181 238742836 36001 36234.926704396035 2 36001 36234.926704396 72235.926704396 2609041914.273
vector 97  BasicTopology.peer[48].bitTorrentApp.bitTorrentClient  DownloadComplete_Test:vector  ETV
attr source BitTorrentClient_DownloadComplete_Test
attr title "Descargas completas (prueba), vector"
97	44905 67 182 213030163 36001 36194.592351024474 2 36001 36194.592351024 72195.592351024 2606120516.4568
vector 99  BasicTopology.peer[49].bitTorrentApp.bitTorrentClient  DownloadComplete_Test:vector  ETV
attr source BitTorrentClient_DownloadComplete_Test
attr title "Descargas completas (prueba), vector"
99	44972 67 183 229368800 36001 36217.298151049036 2 36001 36217.298151049 72218.298151049 2607764686.362
vector 1633  BasicTopology.peer[0].bitTorrentApp.bitTorrentClient.contentManager_51  TotalBytesUploaded:vector  ETV
attr source ContentManager_TotalBytesUploaded
attr title "Total of Bytes Uploaded, vector"
attr unit B
1633	45039 13745 359151 227363804 36001.126061098731 36214.480993977936 338 32768 11075584 1877311488 1.3882052633952e+16
vector 1736  BasicTopology.peer[13].bitTorrentApp.bitTorrentClient.contentManager_51  TotalBytesDownloaded:vector  ETV
attr source ContentManager_TotalBytesDownloaded
attr title "Total of Bytes Downloaded, vector"
attr unit B
1736	182217 3915 1508291 241265588 36002.741959618143 36247.160556605902 96 32768 3145728 152567808 3.2162433099366e+14
vector 1872  BasicTopology.peer[30].bitTorrentApp.bitTorrentClient.contentManager_51  TotalBytesDownloaded:vector  ETV
attr source ContentManager_TotalBytesDownloaded
attr title "Total of Bytes Downloaded, vector"
attr unit B
1872	307713 3877 1834781 74184615 36003.276923841737 36063.749612733291 96 32768 3145728 152567808 3.2162433099366e+14
vector 1871  BasicTopology.peer[30].bitTorrentApp.bitTorrentClient.contentManager_51  PiecesDownloaded:vector  ETV
attr source ContentManager_PieceDownloaded
attr title "Pieces Downloaded, vector"
1871	307294 419 2006115 74184615 36003.907878707279 36063.749612733291 12 0 11 66 506
vector 1873  BasicTopology.peer[30].bitTorrentApp.bitTorrentClient.contentManager_51  TotalBytesUploaded:vector  ETV
attr source ContentManager_TotalBytesUploaded
attr title "Total of Bytes Uploaded, vector"
attr unit B
1873	311590 10567 2029329 162571234 36003.949567914646 36137.49689721508 260 32768 8519680 1111818240 6.3270344353382e+15
vector 1880  BasicTopology.peer[31].bitTorrentApp.bitTorrentClient.contentManager_51  TotalBytesDownloaded:vector  ETV
attr source ContentManager_TotalBytesDownloaded
attr title "Total of Bytes Downloaded, vector"
attr unit B
1880	322577 3879 2536855 112211775 36004.326251721868 36092.866620138396 96 32768 3145728 152567808 3.2162433099366e+14
vector 1896  BasicTopology.peer[33].bitTorrentApp.bitTorrentClient.contentManager_51  TotalBytesDownloaded:vector  ETV
attr source ContentManager_TotalBytesDownloaded
attr title "Total of Bytes Downloaded, vector"
attr unit B
1896	342495 4286 3334744 219608889 36005.419709585067 36203.647247306398 104 32768 3407872 178913280 4.0842991501312e+14
vector 1735  BasicTopology.peer[13].bitTorrentApp.bitTorrentClient.contentManager_51  PiecesDownloaded:vector  ETV
attr source ContentManager_PieceDownloaded
attr title "Pieces Downloaded, vector"
1735	181790 427 3840768 241265588 36006.384426127677 36247.160556605902 12 0 11 66 506
vector 1936  BasicTopology.peer[38].bitTorrentApp.bitTorrentClient.contentManager_51  TotalBytesDownloaded:vector  ETV
attr source ContentManager_TotalBytesDownloaded
attr title "Total of Bytes Downloaded, vector"
attr unit B
1936	377792 3938 3884823 199253847 36006.414176255776 36177.622109096309 96 32768 3145728 152567808 3.2162433099366e+14
vector 1737  BasicTopology.peer[13].bitTorrentApp.bitTorrentClient.contentManager_51  TotalBytesUploaded:vector  ETV
attr source ContentManager_TotalBytesUploaded
attr title "Total of Bytes Uploaded, vector"
attr unit B
1737	186132 7246 3925278 174460667 36006.458381086866 36149.969804841298 179 32768 5865472 527892480 2.0699917005619e+15
vector 1712  BasicTopology.peer[10].bitTorrentApp.bitTorrentClient.contentManager_51  TotalBytesDownloaded:vector  ETV
attr source ContentManager_TotalBytesDownloaded
attr title "Total of Bytes Downloaded, vector"
attr unit B
1712	152777 3906 4087689 188507960 36006.653935387871 36165.475032078125 96 32768 3145728 152567808 3.2162433099366e+14
vector 1824  BasicTopology.peer[24].bitTorrentApp.bitTorrentClient.contentManager_51  TotalBytesDownloaded:vector  ETV
attr source ContentManager_TotalBytesDownloaded
attr title "Total of Bytes Downloaded, vector"
attr unit B
1824	267603 4351 4688748 231448244 36007.793029719078 36220.837864589136 106 32768 3473408 185827328 4.3233248175718e+14
vector 1776  BasicTopology.peer[18].bitTorrentApp.bitTorrentClient.contentManager_51  TotalBytesDownloaded:vector  ETV
attr source ContentManager_TotalBytesDownloaded
attr title "Total of Bytes Downloaded, vector"
attr unit B
1776	214993 3943 4933610 221249169 36008.063871306643 36205.936050644046 96 32768 3145728 152567808 3.2162433099366e+14
vector 1768  BasicTopology.peer[17].bitTorrentApp.bitTorrentClient.contentManager_51  TotalBytesDownloaded:vector  ETV
attr source ContentManager_TotalBytesDownloaded
attr title "Total of Bytes Downloaded, vector"
attr unit B
1768	208986 3978 5185339 212562737 36008.360981884966 36194.016231077445 97 32768 3178496 155746304 3.3172716781568e+14
vector 1879  BasicTopology.peer[31].bitTorrentApp.bitTorrentClient.contentManager_51  PiecesDownloaded:vector  ETV
attr source ContentManager_PieceDownloaded
attr title "Pieces Downloaded, vector"
1879	322157 420 5263540 112211775 36008.44683132071 36092.866620138396 12 0 11 66 506
vector 1881  BasicTopology.peer[31].bitTorrentApp.bitTorrentClient.contentManager_51  TotalBytesUploaded:vector  ETV
attr source ContentManager_TotalBytesUploaded
attr title "Total of Bytes Uploaded, vector"
attr unit B
1881	326456 7945 5511266 220022646 36008.592868061564 36204.259256911617 194 32768 6356992 619806720 2.6335075159245e+15
vector 1760  BasicTopology.peer[16].bitTorrentApp.bitTorrentClient.contentManager_51  TotalBytesDownloaded:vector  ETV
attr source ContentManager_TotalBytesDownloaded
attr title "Total of Bytes Downloaded, vector"
attr unit B
1760	204604 3954 5661106 223022204 36008.774874046637 36208.29746963768 96 32768 3145728 152567808 3.2162433099366e+14
vector 1823  BasicTopology.peer[24].bitTorrentApp.bitTorrentClient.contentManager_51  PiecesDownloaded:vector  ETV
attr source ContentManager_PieceDownloaded
attr title "Pieces Downloaded, vector"
1823	267175 428 6010249 231448244 36009.219365623506 36220.837864589136 12 0 11 66 506
vector 1825  BasicTopology.peer[24].bitTorrentApp.bitTorrentClient.contentManager_51  TotalBytesUploaded:vector  ETV
attr source ContentManager_TotalBytesUploaded
attr title "Total of Bytes Uploaded, vector"
attr unit B
1825	271954 4674 6096653 219887935 36009.313508496444 36204.04133151161 115 32768 3768320 218562560 5.5146306338816e+14
vector 1711  BasicTopology.peer[10].bitTorrentApp.bitTorrentClient.contentManager_51  PiecesDownloaded:vector  ETV
attr source ContentManager_PieceDownloaded
attr title "Pieces Downloaded, vector"
1711	152353 424 6192942 188507960 36009.436508486761 36165.475032078125 12 0 11 66 506
vector 1664  BasicTopology.peer[4].bitTorrentApp.bitTorrentClient.contentManager_51  TotalBytesDownloaded:vector  ETV
attr source ContentManager_TotalBytesDownloaded
attr title "Total of Bytes Downloaded, vector"
attr unit B
1664	94242 3947 6232148 207414663 36009.480299727335 36187.385385394259 96 32768 3145728 152567808 3.2162433099366e+14
vector 1713  BasicTopology.peer[10].bitTorrentApp.bitTorrentClient.contentManager_51  TotalBytesUploaded:vector  ETV
attr source ContentManager_TotalBytesUploaded
attr title "Total of Bytes Uploaded, vector"
attr unit B
1713	156683 10415 6250584 243215744 36009.514932707477 36301.190309766116 255 32768 8355840 1069547520 5.9696609440563e+15
vector 1696  BasicTopology.peer[8].bitTorrentApp.bitTorrentClient.contentManager_51  TotalBytesDownloaded:vector  ETV
attr source ContentManager_TotalBytesDownloaded
attr title "Total of Bytes Downloaded, vector"
attr unit B
1696	136698 4609 6336737 221321421 36009.627336916228 36206.034194936213 112 32768 3670016 207355904 5.095978696704e+14
vector 1800  BasicTopology.peer[21].bitTorrentApp.bitTorrentClient.contentManager_51  TotalBytesDownloaded:vector  ETV
attr source ContentManager_TotalBytesDownloaded
attr title "Total of Bytes Downloaded, vector"
attr unit B
1800	239637 4405 6385643 237510874 36009.684425535615 36231.649398461307 107 32768 3506176 189333504 4.4462575190016e+14
vector 1640  BasicTopology.peer[1].bitTorrentApp.bitTorrentClient.contentManager_51  TotalBytesDownloaded:vector  ETV
attr source ContentManager_TotalBytesDownloaded
attr title "Total of Bytes Downloaded, vector"
attr unit B
1640	59206 3908 6497086 207765124 36009.929325157628 36187.809397267583 96 32768 3145728 152567808 3.2162433099366e+14
vector 1720  BasicTopology.peer[11].bitTorrentApp.bitTorrentClient.contentManager_51  TotalBytesDownloaded:vector  ETV
attr source ContentManager_TotalBytesDownloaded
attr title "Total of Bytes Downloaded, vector"
attr unit B
1720	167525 3948 7413933 243971862 36010.629174213598 36304.977794971862 96 32768 3145728 152567808 3.2162433099366e+14
vector 1848  BasicTopology.peer[27].bitTorrentApp.bitTorrentClient.contentManager_51  TotalBytesDownloaded:vector  ETV
attr source ContentManager_TotalBytesDownloaded
attr title "Total of Bytes Downloaded, vector"
attr unit B
1848	288452 4161 7540525 241664486 36010.724621889171 36251.997897613624 101 32768 3309568 168787968 3.7425378649702e+14
vector 1992  BasicTopology.peer[45].bitTorrentApp.bitTorrentClient.contentManager_51  TotalBytesDownloaded:vector  ETV
attr source ContentManager_TotalBytesDownloaded
attr title "Total of Bytes Downloaded, vector"
attr unit B
1992	436984 4339 7724431 240140848 36010.893080435777 36240.893372280126 105 32768 3440640 182353920 4.2026791862272e+14
vector 1728  BasicTopology.peer[12].bitTorrentApp.bitTorrentClient.contentManager_51  TotalBytesDownloaded:vector  ETV
attr source ContentManager_TotalBytesDownloaded
attr title "Total of Bytes Downloaded, vector"
attr unit B
1728	176876 3958 7761479 217399438 36010.934227912753 36200.487986053635 96 32768 3145728 152567808 3.2162433099366e+14
vector 2024  BasicTopology.peer[49].bitTorrentApp.bitTorrentClient.contentManager_51  TotalBytesDownloaded:vector  ETV
attr source ContentManager_TotalBytesDownloaded
attr title "Total of Bytes Downloaded, vector"
attr unit B
2024	464714 3935 7796885 229368800 36010.970992706093 36217.298151049036 96 32768 3145728 152567808 3.2162433099366e+14
vector 1672  BasicTopology.peer[5].bitTorrentApp.bitTorrentClient.contentManager_51  TotalBytesDownloaded:vector  ETV
attr source ContentManager_TotalBytesDownloaded
attr title "Total of Bytes Downloaded, vector"
attr unit B
1672	102181 3917 7806585 183726814 36010.982373319121 36160.117461373963 96 32768 3145728 152567808 3.2162433099366e+14
vector 1656  BasicTopology.peer[3].bitTorrentApp.bitTorrentClient.contentManager_51  TotalBytesDownloaded:vector  ETV
attr source ContentManager_TotalBytesDownloaded
attr title "Total of Bytes Downloaded, vector"
attr unit B
1656	83402 3890 8122054 97921749 36011.29624879851 36082.246282202679 96 32768 3145728 152567808 3.2162433099366e+14
vector 1984  BasicTopology.peer[44].bitTorrentApp.bitTorrentClient.contentManager_51  TotalBytesDownloaded:vector  ETV
attr source ContentManager_TotalBytesDownloaded
attr title "Total of Bytes Downloaded, vector"
attr unit B
1984	428259 3936 8868510 215869018 36012.02117303151 36198.374069983638 96 32768 3145728 152567808 3.2162433099366e+14
vector 1935  BasicTopology.peer[38].bitTorrentApp.bitTorrentClient.contentManager_51  PiecesDownloaded:vector  ETV
attr source ContentManager_PieceDownloaded
attr title "Pieces Downloaded, vector"
1935	377364 428 8881724 199253847 36012.035389286348 36177.622109096309 12 0 11 66 506
vector 1937  BasicTopology.peer[38].bitTorrentApp.bitTorrentClient.contentManager_51  TotalBytesUploaded:vector  ETV
attr source ContentManager_TotalBytesUploaded
attr title "Total of Bytes Uploaded, vector"
attr unit B
1937	381730 3544 8932953 173278557 36012.070254647223 36148.768459365167 88 32768 2883584 128319488 2.4808160598426e+14
vector 1799  BasicTopology.peer[21].bitTorrentApp.bitTorrentClient.contentManager_51  PiecesDownloaded:vector  ETV
attr source ContentManager_PieceDownloaded
attr title "Pieces Downloaded, vector"
1799	239208 429 10074321 237510874 36013.317137584623 36231.649398461307 12 0 11 66 506
vector 1801  BasicTopology.peer[21].bitTorrentApp.bitTorrentClient.contentManager_51  TotalBytesUploaded:vector  ETV
attr source ContentManager_TotalBytesUploaded
attr title "Total of Bytes Uploaded, vector"
attr unit B
1801	244042 6187 10125528 238974237 36013.370096533794 36235.248303708181 151 32768 4947968 376045568 1.2445483783946e+15
vector 1895  BasicTopology.peer[33].bitTorrentApp.bitTorrentClient.contentManager_51  PiecesDownloaded:vector  ETV
attr source ContentManager_PieceDownloaded
attr title "Pieces Downloaded, vector"
1895	342066 429 10312076 219608889 36013.53851216866 36203.647247306398 12 0 11 66 506
vector 1960  BasicTopology.peer[41].bitTorrentApp.bitTorrentClient.contentManager_51  TotalBytesDownloaded:vector  ETV
attr source ContentManager_TotalBytesDownloaded
attr title "Total of Bytes Downloaded, vector"
attr unit B
1960	400454 3931 10353282 183187512 36013.568610371458 36159.488789498232 96 32768 3145728 152567808 3.2162433099366e+14
vector 1897  BasicTopology.peer[33].bitTorrentApp.bitTorrentClient.contentManager_51  TotalBytesUploaded:vector  ETV
attr source ContentManager_TotalBytesUploaded
attr title "Total of Bytes Uploaded, vector"
attr unit B
1897	346781 3839 10393949 225353092 36013.600254553067 36211.778872010676 94 32768 3080192 146309120 3.0203820638208e+14
vector 1680  BasicTopology.peer[6].bitTorrentApp.bitTorrentClient.contentManager_51  TotalBytesDownloaded:vector  ETV
attr source ContentManager_TotalBytesDownloaded
attr title "Total of Bytes Downloaded, vector"
attr unit B
1680	111347 3917 10442281 218976675 36013.636471026704 36202.838401303356 96 32768 3145728 152567808 3.2162433099366e+14
vector 1959  BasicTopology.peer[41].bitTorrentApp.bitTorrentClient.contentManager_51  PiecesDownloaded:vector  ETV
attr source ContentManager_PieceDownloaded
attr title "Pieces Downloaded, vector"
1959	400027 427 11410477 183187512 36014.512892752943 36159.488789498232 12 0 11 66 506
vector 1961  BasicTopology.peer[41].bitTorrentApp.bitTorrentClient.contentManager_51  TotalBytesUploaded:vector  ETV
attr source ContentManager_TotalBytesUploaded
attr title "Total of Bytes Uploaded, vector"
attr unit B
1961	404385 7543 11449426 156794323 36014.558217577798 36131.633779083287 184 32768 6029312 557711360 2.247835558871e+15
vector 1952  BasicTopology.peer[40].bitTorrentApp.bitTorrentClient.contentManager_51  TotalBytesDownloaded:vector  ETV
attr source ContentManager_TotalBytesDownloaded