file 466003 1593887682                                          
version 2
run Test-20-20200525-12:24:25-6826
attr configname Test
attr datetime 20200525-12:24:25
attr experiment "\"Simulation Test\""
attr inifile BasicConfig.ini
attr iterationvars ""
attr iterationvars2 $repetition=20
attr measurement "\"Peers: $peers, Rate: $rate\""
attr network BasicTopology
attr processid 6826
attr repetition 20
attr replication #20
attr resultdir results
attr runnumber 20
attr seedset 20
vector 3  BasicTopology.peer[1].bitTorrentApp.bitTorrentClient  DownloadComplete_Test:vector  ETV
attr source BitTorrentClient_DownloadComplete_Test
attr title "Descargas completas (prueba), vector"
3	41776 64 135 54817596 36001 36057.402326576294 2 36001 36057.402326576 72058.402326576 2596208263.5406
vector 5  BasicTopology.peer[2].bitTorrentApp.bitTorrentClient  DownloadComplete_Test:vector  ETV
attr source BitTorrentClient_DownloadComplete_Test
attr title "Descargas completas (prueba), vector"
5	41840 65 136 185408980 36001 36170.296717144451 2 36001 36170.296717144 72171.296717144 2604362365.6062
vector 7  BasicTopology.peer[3].bitTorrentApp.bitTorrentClient  DownloadComplete_Test:vector  ETV
attr source BitTorrentClient_DownloadComplete_Test
attr title "Descargas completas (prueba), vector"
7	41905 65 137 225349487 36001 36224.713805908917 2 36001 36224.713805909 72225.713805909 2608301891.32
vector 9  BasicTopology.peer[4].bitTorrentApp.bitTorrentClient  DownloadComplete_Test:vector  ETV
attr source BitTorrentClient_DownloadComplete_Test
attr title "Descargas completas (prueba), vector"
9	41970 64 138 170210931 36001 36153.266834910092 2 36001 36153.26683491 72154.26683491 2603130703.8362
vector 11  BasicTopology.peer[5].bitTorrentApp.bitTorrentClient  DownloadComplete_Test:vector  ETV
attr source BitTorrentClient_DownloadComplete_Test
attr title "Descargas completas (prueba), vector"
11	42034 67 139 207396996 36001 36197.186866309215 2 36001 36197.186866309 72198.186866309 2606308338.0345
vector 13  BasicTopology.peer[6].bitTorrentApp.bitTorrentClient  DownloadComplete_Test:vector  ETV
attr source BitTorrentClient_DownloadComplete_Test
attr title "Descargas completas (prueba), vector"
13	42101 67 140 189179154 36001 36174.719906712065 2 36001 36174.719906712 72175.719906712 2604682361.3291
vector 15  BasicTopology.peer[7].bitTorrentApp.bitTorrentClient  DownloadComplete_Test:vector  ETV
attr source BitTorrentClient_DownloadComplete_Test
attr title "Descargas completas (prueba), vector"
15	42168 67 141 213423030 36001 36205.076312128284 2 36001 36205.076312128 72206.076312128 2606879551.767
vector 17  BasicTopology.peer[8].bitTorrentApp.bitTorrentClient  DownloadComplete_Test:vector  ETV
attr source BitTorrentClient_DownloadComplete_Test
attr title "Descargas completas (prueba), vector"
17	42235 65 142 193862009 36001 36180.11403314015 2 36001 36180.11403314 72181.11403314 2605072652.451
vector 19  BasicTopology.peer[9].bitTorrentApp.bitTorrentClient  DownloadComplete_Test:vector  ETV
attr source BitTorrentClient_DownloadComplete_Test
attr title "Descargas completas (prueba), vector"
19	42300 67 143 223006133 36001 36219.031971340976 2 36001 36219.031971341 72220.031971341 2607890277.941
vector 21  BasicTopology.peer[10].bitTorrentApp.bitTorrentClient  DownloadComplete_Test:vector  ETV
attr source BitTorrentClient_DownloadComplete_Test
attr title "Descargas completas (prueba), vector"
21	42367 67 144 177120667 36001 36160.640846796467 2 36001 36160.640846796 72161.640846796 2603663947.451
vector 23  BasicTopology.peer[11].bitTorrentApp.bitTorrentClient  DownloadComplete_Test:vector  ETV
attr source BitTorrentClient_DownloadComplete_Test
attr title "Descargas completas (prueba), vector"
23	42434 67 145 201994092 36001 36190.320469216567 2 36001 36190.320469217 72191.320469217 2605811296.6646
vector 25  BasicTopology.peer[12].bitTorrentApp.bitTorrentClient  DownloadComplete_Test:vector  ETV
attr source BitTorrentClient_DownloadComplete_Test
attr title "Descargas completas (prueba), vector"
25	42501 67 146 154212487 36001 36137.553521624562 2 36001 36137.553521625 72138.553521625 2601994775.5283
vector 27  BasicTopology.peer[13].bitTorrentApp.bitTorrentClient  DownloadComplete_Test:vector  ETV
attr source BitTorrentClient_DownloadComplete_Test
attr title "Descargas completas (prueba), vector"
27	42568 67 147 202065781 36001 36190.424774631851 2 36001 36190.424774632 72191.424774632 2605818846.3683
vector 29  BasicTopology.peer[14].bitTorrentApp.bitTorrentClient  DownloadComplete_Test:vector  ETV
attr source BitTorrentClient_DownloadComplete_Test
attr title "Descargas completas (prueba), vector"
29	42635 67 148 221757230 36001 36217.097321349422 2 36001 36217.097321349 72218.097321349 2607750139.3841
vector 31  BasicTopology.peer[15].bitTorrentApp.bitTorrentClient  DownloadComplete_Test:vector  ETV
attr source BitTorrentClient_DownloadComplete_Test
attr title "Descargas completas (prueba), vector"
31	42702 66 149 215318557 36001 36207.752781480455 2 36001 36207.75278148 72208.75278148 2607073362.4848
vector 33  BasicTopology.peer[16].bitTorrentApp.bitTorrentClient  DownloadComplete_Test:vector  ETV
attr source BitTorrentClient_DownloadComplete_Test
attr title "Descargas completas (prueba), vector"
33	42768 67 150 211979125 36001 36203.146538285052 2 36001 36203.146538285 72204.146538285 2606739820.2725
vector 35  BasicTopology.peer[17].bitTorrentApp.bitTorrentClient  DownloadComplete_Test:vector  ETV
attr source BitTorrentClient_DownloadComplete_Test
attr title "Descargas completas (prueba), vector"
35	42835 67 151 221091998 36001 36216.109888573119 2 36001 36216.109888573 72217.109888573 2607678616.4612
vector 37  BasicTopology.peer[18].bitTorrentApp.bitTorrentClient  DownloadComplete_Test:vector  ETV
attr source BitTorrentClient_DownloadComplete_Test
attr title "Descargas completas (prueba), vector"
37	42902 67 152 198103351 36001 36185.163997301305 2 36001 36185.163997301 72186.163997301 2605438094.5116
vector 39  BasicTopology.peer[19].bitTorrentApp.bitTorrentClient  DownloadComplete_Test:vector  ETV
attr source BitTorrentClient_DownloadComplete_Test
attr title "Descargas completas (prueba), vector"
39	42969 67 153 220737927 36001 36215.500362167823 2 36001 36215.500362168 72216.500362168 2607634467.4822
vector 41  BasicTopology.peer[20].bitTorrentApp.bitTorrentClient  DownloadComplete_Test:vector  ETV
attr source BitTorrentClient_DownloadComplete_Test
attr title "Descargas completas (prueba), vector"
41	43036 65 154 174673242 36001 36157.90547625986 2 36001 36157.90547626 72158.90547626 2603466129.4302
vector 43  BasicTopology.peer[21].bitTorrentApp.bitTorrentClient  DownloadComplete_Test:vector  ETV
attr source BitTorrentClient_DownloadComplete_Test
attr title "Descargas completas (prueba), vector"
43	43101 67 155 174587645 36001 36157.809027183572 2 36001 36157.809027184 72158.809027184 2603459154.6463
vector 45  BasicTopology.peer[22].bitTorrentApp.bitTorrentClient  DownloadComplete_Test:vector  ETV
attr source BitTorrentClient_DownloadComplete_Test
attr title "Descargas completas (prueba), vector"
45	43168 67 156 203158824 36001 36191.784728252506 2 36001 36191.784728253 72192.784728253 2605917282.8162
vector 47  BasicTopology.peer[23].bitTorrentApp.bitTorrentClient  DownloadComplete_Test:vector  ETV
attr source BitTorrentClient_DownloadComplete_Test
attr title "Descargas completas (prueba), vector"
47	43235 66 157 168545541 36001 36151.592990789807 2 36001 36151.59299079 72152.59299079 2603009676.7717
vector 49  BasicTopology.peer[24].bitTorrentApp.bitTorrentClient  DownloadComplete_Test:vector  ETV
attr source BitTorrentClient_DownloadComplete_Test
attr title "Descargas completas (prueba), vector"
49	43301 67 158 196521730 36001 36183.268556407474 2 36001 36183.268556407 72184.268556407 2605300924.4251
vector 51  BasicTopology.peer[25].bitTorrentApp.bitTorrentClient  DownloadComplete_Test:vector  ETV
attr source BitTorrentClient_DownloadComplete_Test
attr title "Descargas completas (prueba), vector"
51	43368 67 159 231647107 36001 36306.755654674741 2 36001 36306.755654675 72307.755654675 2614252507.1683
vector 53  BasicTopology.peer[26].bitTorrentApp.bitTorrentClient  DownloadComplete_Test:vector  ETV
attr source BitTorrentClient_DownloadComplete_Test
attr title "Descargas completas (prueba), vector"
53	43435 67 160 225327708 36001 36224.596351149161 2 36001 36224.596351149 72225.596351149 2608293381.8037
vector 55  BasicTopology.peer[27].bitTorrentApp.bitTorrentClient  DownloadComplete_Test:vector  ETV
attr source BitTorrentClient_DownloadComplete_Test
attr title "Descargas completas (prueba), vector"
55	43502 67 161 221335956 36001 36216.499203885141 2 36001 36216.499203885 72217.499203885 2607706815.585
vector 57  BasicTopology.peer[28].bitTorrentApp.bitTorrentClient  DownloadComplete_Test:vector  ETV
attr source BitTorrentClient_DownloadComplete_Test
attr title "Descargas completas (prueba), vector"
57	43569 67 162 216261867 36001 36208.980628176882 2 36001 36208.980628177 72209.980628177 2607162279.1317
vector 59  BasicTopology.peer[29].bitTorrentApp.bitTorrentClient  DownloadComplete_Test:vector  ETV
attr source BitTorrentClient_DownloadComplete_Test
attr title "Descargas completas (prueba), vector"
59	43636 67 163 200628954 36001 36188.454112544692 2 36001 36188.454112545 72189.454112545 2605676212.0558
vector 61  BasicTopology.peer[30].bitTorrentApp.bitTorrentClient  DownloadComplete_Test:vector  ETV
attr source BitTorrentClient_DownloadComplete_Test
attr title "Descargas completas (prueba), vector"
61	43703 67 164 190993734 36001 36176.969877807158 2 36001 36176.969877807 72177.969877807 2604845150.5398
vector 63  BasicTopology.peer[31].bitTorrentApp.bitTorrentClient  DownloadComplete_Test:vector  ETV
attr source BitTorrentClient_DownloadComplete_Test
attr title "Descargas completas (prueba), vector"
63	43770 67 165 228352648 36001 36232.074002707745 2 36001 36232.074002708 72233.074002708 2608835187.5377
vector 65  BasicTopology.peer[32].bitTorrentApp.bitTorrentClient  DownloadComplete_Test:vector  ETV
attr source BitTorrentClient_DownloadComplete_Test
attr title "Descargas completas (prueba), vector"
65	43837 66 166 202322941 36001 36190.66300011548 2 36001 36190.663000115 72191.663000115 2605836089.3879
vector 67  BasicTopology.peer[33].bitTorrentApp.bitTorrentClient  DownloadComplete_Test:vector  ETV
attr source BitTorrentClient_DownloadComplete_Test
attr title "Descargas completas (prueba), vector"
67	43903 67 167 227924647 36001 36230.389661085799 2 36001 36230.389661086 72231.389661086 2608713135.9941
vector 69  BasicTopology.peer[34].bitTorrentApp.bitTorrentClient  DownloadComplete_Test:vector  ETV
attr source BitTorrentClient_DownloadComplete_Test
attr title "Descargas completas (prueba), vector"
69	43970 66 168 210836201 36001 36201.470833959707 2 36001 36201.47083396 72202.47083396 2606618491.5421
vector 71  BasicTopology.peer[35].bitTorrentApp.bitTorrentClient  DownloadComplete_Test:vector  ETV
attr source BitTorrentClient_DownloadComplete_Test
attr title "Descargas completas (prueba), vector"
71	44036 67 169 206780947 36001 36196.396641646544 2 36001 36196.396641647 72197.396641647 2606251130.8394
vector 73  BasicTopology.peer[36].bitTorrentApp.bitTorrentClient  DownloadComplete_Test:vector  ETV
attr source BitTorrentClient_DownloadComplete_Test
attr title "Descargas completas (prueba), vector"
73	44103 67 170 184710820 36001 36169.510768956419 2 36001 36169.510768956 72170.510768956 2604305510.2656
vector 75  BasicTopology.peer[37].bitTorrentApp.bitTorrentClient  DownloadComplete_Test:vector  ETV
attr source BitTorrentClient_DownloadComplete_Test
attr title "Descargas completas (prueba), vector"
75	44170 67 171 215562669 36001 36208.104689021023 2 36001 36208.104689021 72209.104689021 2607098846.1711
vector 77  BasicTopology.peer[38].bitTorrentApp.bitTorrentClient  DownloadComplete_Test:vector  ETV
attr source BitTorrentClient_DownloadComplete_Test
attr title "Descargas completas (prueba), vector"
77	44237 67 172 221787611 36001 36217.374181181631 2 36001 36217.374181182 72218.374181182 2607770193.5797
vector 79  BasicTopology.peer[39].bitTorrentApp.bitTorrentClient  DownloadComplete_Test:vector  ETV
attr source BitTorrentClient_DownloadComplete_Test
attr title "Descargas completas (prueba), vector"
79	44304 67 173 225849292 36001 36226.614031301064 2 36001 36226.614031301 72227.614031301 2608439565.1729
vector 81  BasicTopology.peer[40].bitTorrentApp.bitTorrentClient  DownloadComplete_Test:vector  ETV
attr source BitTorrentClient_DownloadComplete_Test
attr title "Descargas completas (prueba), vector"
81	44371 67 174 161168409 36001 36144.086656175998 2 36001 36144.086656176 72145.086656176 2602467001.2092
vector 83  BasicTopology.peer[41].bitTorrentApp.bitTorrentClient  DownloadComplete_Test:vector  ETV
attr source BitTorrentClient_DownloadComplete_Test
attr title "Descargas completas (prueba), vector"
83	44438 67 175 179053623 36001 36162.857371265763 2 36001 36162.857371266 72163.857371266 2603824254.2545
vector 85  BasicTopology.peer[42].bitTorrentApp.bitTorrentClient  DownloadComplete_Test:vector  ETV
attr source BitTorrentClient_DownloadComplete_Test
attr title "Descargas completas (prueba), vector"
85	44505 67 176 151438157 36001 36134.965560760523 2 36001 36134.965560761 72135.965560761 2601807737.0774
vector 87  BasicTopology.peer[43].bitTorrentApp.bitTorrentClient  DownloadComplete_Test:vector  ETV
attr source BitTorrentClient_DownloadComplete_Test
attr title "Descargas completas (prueba), vector"
87	44572 67 177 210094618 36001 36200.446200278946 2 36001 36200.446200279 72201.446200279 2606544306.0993
vector 89  BasicTopology.peer[44].bitTorrentApp.bitTorrentClient  DownloadComplete_Test:vector  ETV
attr source BitTorrentClient_DownloadComplete_Test
attr title "Descargas completas (prueba), vector"
89	44639 67 178 192291396 36001 36178.528507936496 2 36001 36178.528507936 72179.528507936 2604957925.9995
vector 91  BasicTopology.peer[45].bitTorrentApp.bitTorrentClient  DownloadComplete_Test:vector  ETV
attr source BitTorrentClient_DownloadComplete_Test
attr title "Descargas completas (prueba), vector"
91	44706 67 179 223606509 36001 36220.231151483551 2 36001 36220.231151484 72221.231151484 2607977145.6669
vector 93  BasicTopology.peer[46].bitTorrentApp.bitTorrentClient  DownloadComplete_Test:vector  ETV
attr source BitTorrentClient_DownloadComplete_Test
attr title "Descargas completas (prueba), vector"
93	44773 67 180 207781215 36001 36197.589036992096 2 36001 36197.589036992 72198.589036992 2606337453.091
vector 95  BasicTopology.peer[47].bitTorrentApp.bitTorrentClient  DownloadComplete_Test:vector  ETV
attr source BitTorrentClient_DownloadComplete_Test
attr title "Descargas completas (prueba), vector"
95	44840 67 181 173280230 36001 36156.524220454053 2 36001 36156.524220454 72157.524220454 2603366244.7043
vector 97  BasicTopology.peer[48].bitTorrentApp.bitTorrentClient  DownloadComplete_Test:vector  ETV
attr source BitTorrentClient_DownloadComplete_Test
attr title "Descargas completas (prueba), vector"
97	44907 67 182 207704270 36001 36197.506897503931 2 36001 36197.506897504 72198.506897504 2606331506.5948
vector 99  BasicTopology.peer[49].bitTorrentApp.bitTorrentClient  DownloadComplete_Test:vector  ETV
attr source BitTorrentClient_DownloadComplete_Test
attr title "Descargas completas (prueba), vector"
99	44974 67 183 228166434 36001 36231.602027886945 2 36001 36231.602027887 72232.602027887 2608800986.5072
vector 1633  BasicTopology.peer[0].bitTorrentApp.bitTorrentClient.contentManager_51  TotalBytesUploaded:vector  ETV
attr source ContentManager_TotalBytesUploaded
attr title "Total of Bytes Uploaded, vector"
attr unit B
1633	45041 14570 1316540 189114680 36002.585415303424 36174.650760397435 357 32768 11698176 2093973504 1.6353318834012e+16
vector 1640  BasicTopology.peer[1].bitTorrentApp.bitTorrentClient.contentManager_51  TotalBytesDownloaded:vector  ETV
attr source ContentManager_TotalBytesDownloaded
attr title "Total of Bytes Downloaded, vector"
attr unit B
1640	60028 3855 1574358 54817596 36003.983144592592 36057.402326576294 96 32768 3145728 152567808 3.2162433099366e+14
vector 1760  BasicTopology.peer[16].bitTorrentApp.bitTorrentClient.contentManager_51  TotalBytesDownloaded:vector  ETV
attr source ContentManager_TotalBytesDownloaded
attr title "Total of Bytes Downloaded, vector"
attr unit B
1760	212484 5034 2093603 221082211 36004.340200035432 36216.037748132316 122 32768 3997696 245858304 6.5792993394688e+14
vector 1639  BasicTopology.peer[1].bitTorrentApp.bitTorrentClient.contentManager_51  PiecesDownloaded:vector  ETV
attr source ContentManager_PieceDownloaded
attr title "Pieces Downloaded, vector"
1639	59611 417 2805705 54817596 36005.21291536476 36057.402326576294 12 0 11 66 506
vector 1641  BasicTopology.peer[1].bitTorrentApp.bitTorrentClient.contentManager_51  TotalBytesUploaded:vector  ETV
attr source ContentManager_TotalBytesUploaded
attr title "Total of Bytes Uploaded, vector"
attr unit B
1641	63883 9740 2855146 210628897 36005.303303575692 36201.145448601084 240 32768 7864320 947650560 4.9787690391962e+15
vector 1736  BasicTopology.peer[13].bitTorrentApp.bitTorrentClient.contentManager_51  TotalBytesDownloaded:vector  ETV
attr source ContentManager_TotalBytesDownloaded
attr title "Total of Bytes Downloaded, vector"
attr unit B
1736	190679 4265 3268714 202065781 36006.969444832237 36190.424774631851 104 32768 3407872 178913280 4.0842991501312e+14
vector 1712  BasicTopology.peer[10].bitTorrentApp.bitTorrentClient.contentManager_51  TotalBytesDownloaded:vector  ETV
attr source ContentManager_TotalBytesDownloaded
attr title "Total of Bytes Downloaded, vector"
attr unit B
1712	153388 3901 3271699 177120667 36006.977843386464 36160.640846796467 96 32768 3145728 152567808 3.2162433099366e+14
vector 1680  BasicTopology.peer[6].bitTorrentApp.bitTorrentClient.contentManager_51  TotalBytesDownloaded:vector  ETV
attr source ContentManager_TotalBytesDownloaded
attr title "Total of Bytes Downloaded, vector"
attr unit B
1680	117591 4259 3517692 189179154 36007.279402644981 36174.719906712065 104 32768 3407872 178913280 4.0842991501312e+14
vector 1824  BasicTopology.peer[24].bitTorrentApp.bitTorrentClient.contentManager_51  TotalBytesDownloaded:vector  ETV
attr source ContentManager_TotalBytesDownloaded
attr title "Total of Bytes Downloaded, vector"
attr unit B
1824	282964 4022 4125298 196521730 36008.981301241186 36183.268556407474 98 32768 3211264 158957568 3.4203938429338e+14
vector 1711  BasicTopology.peer[10].bitTorrentApp.bitTorrentClient.contentManager_51  PiecesDownloaded:vector  ETV
attr source ContentManager_PieceDownloaded
attr title "Pieces Downloaded, vector"
1711	152968 420 4274507 177120667 36009.38465621204 36160.640846796467 12 0 11 66 506
vector 1713  BasicTopology.peer[10].bitTorrentApp.bitTorrentClient.contentManager_51  TotalBytesUploaded:vector  ETV
attr source ContentManager_TotalBytesUploaded
attr title "Total of Bytes Uploaded, vector"
attr unit B
1713	157289 10039 4324652 211741496 36009.481300501057 36202.834943207568 247 32768 8093696 1003618304 5.4262831566029e+15
vector 1976  BasicTopology.peer[43].bitTorrentApp.bitTorrentClient.contentManager_51  TotalBytesDownloaded:vector  ETV
attr source ContentManager_TotalBytesDownloaded
attr title "Total of Bytes Downloaded, vector"
attr unit B
1976	416684 3940 4346519 210094618 36009.525248455423 36200.446200278946 96 32768 3145728 152567808 3.2162433099366e+14
vector 1744  BasicTopology.peer[14].bitTorrentApp.bitTorrentClient.contentManager_51  TotalBytesDownloaded:vector  ETV
attr source ContentManager_TotalBytesDownloaded
attr title "Total of Bytes Downloaded, vector"
attr unit B
1744	199371 3934 4959175 221757230 36010.408857544524 36217.097321349422 96 32768 3145728 152567808 3.2162433099366e+14
vector 1728  BasicTopology.peer[12].bitTorrentApp.bitTorrentClient.contentManager_51  TotalBytesDownloaded:vector  ETV
attr source ContentManager_TotalBytesDownloaded
attr title "Total of Bytes Downloaded, vector"
attr unit B
1728	177042 3890 5254126 154212487 36010.985398203946 36137.553521624562 96 32768 3145728 152567808 3.2162433099366e+14
vector 1727  BasicTopology.peer[12].bitTorrentApp.bitTorrentClient.contentManager_51  PiecesDownloaded:vector  ETV
attr source ContentManager_PieceDownloaded
attr title "Pieces Downloaded, vector"
1727	176621 421 5895382 154212487 36012.537842759335 36137.553521624562 12 0 11 66 506
vector 1800  BasicTopology.peer[21].bitTorrentApp.bitTorrentClient.contentManager_51  TotalBytesDownloaded:vector  ETV
attr source ContentManager_TotalBytesDownloaded
attr title "Total of Bytes Downloaded, vector"
attr unit B
1800	253012 3890 5918752 174587645 36012.567859469366 36157.809027183572 96 32768 3145728 152567808 3.2162433099366e+14
vector 1729  BasicTopology.peer[12].bitTorrentApp.bitTorrentClient.contentManager_51  TotalBytesUploaded:vector  ETV
attr source ContentManager_TotalBytesUploaded
attr title "Total of Bytes Uploaded, vector"
attr unit B
1729	180932 9319 5941841 190247175 36012.600297256815 36175.97909050802 229 32768 7503872 862945280 4.3263796130611e+15
vector 1944  BasicTopology.peer[39].bitTorrentApp.bitTorrentClient.contentManager_51  TotalBytesDownloaded:vector  ETV
attr source ContentManager_TotalBytesDownloaded
attr title "Total of Bytes Downloaded, vector"
attr unit B
1944	379449 3943 6163375 225849292 36012.864741548723 36226.614031301064 96 32768 3145728 152567808 3.2162433099366e+14
vector 1688  BasicTopology.peer[7].bitTorrentApp.bitTorrentClient.contentManager_51  TotalBytesDownloaded:vector  ETV
attr source ContentManager_TotalBytesDownloaded
attr title "Total of Bytes Downloaded, vector"
attr unit B
1688	127813 3980 6167803 213423030 36012.870768200003 36205.076312128284 97 32768 3178496 155746304 3.3172716781568e+14
vector 1664  BasicTopology.peer[4].bitTorrentApp.bitTorrentClient.contentManager_51  TotalBytesDownloaded:vector  ETV
attr source ContentManager_TotalBytesDownloaded
attr title "Total of Bytes Downloaded, vector"
attr unit B
1664	89909 4168 6731652 170210931 36013.786997539824 36153.266834910092 102 32768 3342336 172130304 3.8542499643392e+14
vector 1656  BasicTopology.peer[3].bitTorrentApp.bitTorrentClient.contentManager_51  TotalBytesDownloaded:vector  ETV
attr source ContentManager_TotalBytesDownloaded
attr title "Total of Bytes Downloaded, vector"
attr unit B
1656	83610 3932 6828116 225349487 36013.972386433282 36224.713805908917 96 32768 3145728 152567808 3.2162433099366e+14
vector 1696  BasicTopology.peer[8].bitTorrentApp.bitTorrentClient.contentManager_51  TotalBytesDownloaded:vector  ETV
attr source ContentManager_TotalBytesDownloaded
attr title "Total of Bytes Downloaded, vector"
attr unit B
1696	135735 5034 7270763 226618834 36014.547571388026 36227.782990910773 122 32768 3997696 245858304 6.5792993394688e+14
vector 1759  BasicTopology.peer[16].bitTorrentApp.bitTorrentClient.contentManager_51  PiecesDownloaded:vector  ETV
attr source ContentManager_PieceDownloaded
attr title "Pieces Downloaded, vector"
1759	212056 428 7468501 211979125 36014.761972386444 36203.146538285052 12 0 11 66 506
vector 1761  BasicTopology.peer[16].bitTorrentApp.bitTorrentClient.contentManager_51  TotalBytesUploaded:vector  ETV
attr source ContentManager_TotalBytesUploaded
attr title "Total of Bytes Uploaded, vector"
attr unit B
1761	217518 4753 7490358 173909973 36014.780113318343 36157.097180545529 118 32768 3866624 230064128 5.9556056635802e+14
vector 1952  BasicTopology.peer[40].bitTorrentApp.bitTorrentClient.contentManager_51  TotalBytesDownloaded:vector  ETV
attr source ContentManager_TotalBytesDownloaded
attr title "Total of Bytes Downloaded, vector"
attr unit B
1952	384632 3900 7549127 161168409 36014.856501889733 36144.086656175998 96 32768 3145728 152567808 3.2162433099366e+14
vector 1672  BasicTopology.peer[5].bitTorrentApp.bitTorrentClient.contentManager_51  TotalBytesDownloaded:vector  ETV
attr source ContentManager_TotalBytesDownloaded
attr title "Total of Bytes Downloaded, vector"
attr unit B
1672	105087 4554 7649698 207396996 36014.972874257896 36197.186866309215 111 32768 3637248 203685888 4.9612885223014e+14
vector 1743  BasicTopology.peer[14].bitTorrentApp.bitTorrentClient.contentManager_51  PiecesDownloaded:vector  ETV
attr source ContentManager_PieceDownloaded
attr title "Pieces Downloaded, vector"
1743	198943 428 7885013 221757230 36015.287489262432 36217.097321349422 12 0 11 66 506
vector 1745  BasicTopology.peer[14].bitTorrentApp.bitTorrentClient.contentManager_51  TotalBytesUploaded:vector  ETV
attr source ContentManager_TotalBytesUploaded
attr title "Total of Bytes Uploaded, vector"
attr unit B
1745	203305 2438 7908961 218383823 36015.330681366248 36212.015985906716 61 32768 1998848 61964288 83248277356544
vector 1648  BasicTopology.peer[2].bitTorrentApp.bitTorrentClient.contentManager_51  TotalBytesDownloaded:vector  ETV
attr source ContentManager_TotalBytesDownloaded
attr title "Total of Bytes Downloaded, vector"
attr unit B
1648	74051 3922 7986507 185408980 36015.49552295289 36170.296717144451 96 32768 3145728 152567808 3.2162433099366e+14
vector 1960  BasicTopology.peer[41].bitTorrentApp.bitTorrentClient.contentManager_51  TotalBytesDownloaded:vector  ETV
attr source ContentManager_TotalBytesDownloaded
attr title "Total of Bytes Downloaded, vector"
attr unit B
1960	397143 3962 8215378 179053623 36015.872571368394 36162.857371265763 97 32768 3178496 155746304 3.3172716781568e+14
vector 1799  BasicTopology.peer[21].bitTorrentApp.bitTorrentClient.contentManager_51  PiecesDownloaded:vector  ETV
attr source ContentManager_PieceDownloaded
attr title "Pieces Downloaded, vector"
1799	252591 421 8411522 174587645 36016.142709469133 36157.809027183572 12 0 11 66 506
vector 1704  BasicTopology.peer[9].bitTorrentApp.bitTorrentClient.contentManager_51  TotalBytesDownloaded:vector  ETV
attr source ContentManager_TotalBytesDownloaded
attr title "Total of Bytes Downloaded, vector"
attr unit B
1704	144436 3940 8413941 223006133 36016.144712087642 36219.031971340976 96 32768 3145728 152567808 3.2162433099366e+14
vector 1823  BasicTopology.peer[24].bitTorrentApp.bitTorrentClient.contentManager_51  PiecesDownloaded:vector  ETV
attr source ContentManager_PieceDownloaded
attr title "Pieces Downloaded, vector"
1823	282537 427 8445642 196521730 36016.183017210096 36183.268556407474 12 0 11 66 506
vector 1825  BasicTopology.peer[24].bitTorrentApp.bitTorrentClient.contentManager_51  TotalBytesUploaded:vector  ETV
attr source ContentManager_TotalBytesUploaded
attr title "Total of Bytes Uploaded, vector"
attr unit B
1825	286986 2894 8534842 89926624 36016.305939690134 36085.276923910248 72 32768 2359296 86114304 1.3638668648448e+14
vector 1720  BasicTopology.peer[11].bitTorrentApp.bitTorrentClient.contentManager_51  TotalBytesDownloaded:vector  ETV
attr source ContentManager_TotalBytesDownloaded
attr title "Total of Bytes Downloaded, vector"
attr unit B
1720	167755 3941 8896665 201994092 36016.691345261543 36190.320469216567 96 32768 3145728 152567808 3.2162433099366e+14
vector 1992  BasicTopology.peer[45].bitTorrentApp.bitTorrentClient.contentManager_51  TotalBytesDownloaded:vector  ETV
attr source ContentManager_TotalBytesDownloaded
attr title "Total of Bytes Downloaded, vector"
attr unit B
1992	434079 3953 9029005 223606509 36016.97745829493 36220.231151483551 96 32768 3145728 152567808 3.2162433099366e+14
vector 1671  BasicTopology.peer[5].bitTorrentApp.bitTorrentClient.contentManager_51  PiecesDownloaded:vector  ETV
attr source ContentManager_PieceDownloaded
attr title "Pieces Downloaded, vector"
1671	104664 423 9408522 207396996 36017.633194398972 36197.186866309215 12 0 11 66 506
vector 1840  BasicTopology.peer[26].bitTorrentApp.bitTorrentClient.contentManager_51  TotalBytesDownloaded:vector  ETV
attr source ContentManager_TotalBytesDownloaded
attr title "Total of Bytes Downloaded, vector"
attr unit B
1840	294683 3956 9520543 225327708 36017.778752504889 36224.596351149161 96 32768 3145728 152567808 3.2162433099366e+14
vector 1655  BasicTopology.peer[3].bitTorrentApp.bitTorrentClient.contentManager_51  PiecesDownloaded:vector  ETV
attr source ContentManager_PieceDownloaded
attr title "Pieces Downloaded, vector"
1655	83182 428 9521019 225349487 36017.779441597684 36224.713805908917 12 0 11 66 506
vector 1703  BasicTopology.peer[9].bitTorrentApp.bitTorrentClient.contentManager_51  PiecesDownloaded:vector  ETV
attr source ContentManager_PieceDownloaded
attr title "Pieces Downloaded, vector"
1703	144007 429 9845197 223006133 36018.104754874339 36219.031971340976 12 0 11 66 506
vector 1705  BasicTopology.peer[9].bitTorrentApp.bitTorrentClient.contentManager_51  TotalBytesUploaded:vector  ETV
attr source ContentManager_TotalBytesUploaded
attr title "Total of Bytes Uploaded, vector"
attr unit B
1705	148376 4592 9882011 113131402 36018.136007508967 36102.558100906965 113 32768 3702784 211058688 5.2330847902106e+14
vector 2008  BasicTopology.peer[47].bitTorrentApp.bitTorrentClient.contentManager_51  TotalBytesDownloaded:vector  ETV
attr source ContentManager_TotalBytesDownloaded
attr title "Total of Bytes Downloaded, vector"
attr unit B
2008	447422 3943 10005396 173280230 36018.25699987163 36156.524220454053 96 32768 3145728 152567808 3.2162433099366e+14
vector 1848  BasicTopology.peer[27].bitTorrentApp.bitTorrentClient.contentManager_51  TotalBytesDownloaded:vector  ETV
attr source ContentManager_TotalBytesDownloaded
attr title "Total of Bytes Downloaded, vector"
attr unit B
1848	299068 3960 10005721 221335956 36018.257299174953 36216.499203885141 96 32768 3145728 152567808 3.2162433099366e+14
vector 1663  BasicTopology.peer[4].bitTorrentApp.bitTorrentClient.contentManager_51  PiecesDownloaded:vector  ETV
attr source ContentManager_PieceDownloaded
attr title "Pieces Downloaded, vector"