file 472890 1593887682                                          
version 2
run Test-44-20200525-21:19:18-11296
attr configname Test
attr datetime 20200525-21:19:18
attr experiment "\"Simulation Test\""
attr inifile BasicConfig.ini
attr iterationvars ""
attr iterationvars2 $repetition=44
attr measurement "\"Peers: $peers, Rate: $rate\""
attr network BasicTopology
attr processid 11296
attr repetition 44
attr replication #44
attr resultdir results
attr runnumber 44
attr seedset 44
vector 3  BasicTopology.peer[1].bitTorrentApp.bitTorrentClient  DownloadComplete_Test:vector  ETV
attr source BitTorrentClient_DownloadComplete_Test
attr title "Descargas completas (prueba), vector"
3	42001 65 135 123477255 36001 36105.329706668455 2 36001 36105.329706668 72106.329706668 2599666834.2272
vector 5  BasicTopology.peer[2].bitTorrentApp.bitTorrentClient  DownloadComplete_Test:vector  ETV
attr source BitTorrentClient_DownloadComplete_Test
attr title "Descargas completas (prueba), vector"
5	42066 65 136 187195901 36001 36165.165031604669 2 36001 36165.165031605 72166.165031605 2603991162.7632
vector 7  BasicTopology.peer[3].bitTorrentApp.bitTorrentClient  DownloadComplete_Test:vector  ETV
attr source BitTorrentClient_DownloadComplete_Test
attr title "Descargas completas (prueba), vector"
7	42131 65 137 221238728 36001 36208.972975521341 2 36001 36208.972975521 72209.972975521 2607161724.942
vector 9  BasicTopology.peer[4].bitTorrentApp.bitTorrentClient  DownloadComplete_Test:vector  ETV
attr source BitTorrentClient_DownloadComplete_Test
attr title "Descargas completas (prueba), vector"
9	42196 65 138 197773478 36001 36177.004344706687 2 36001 36177.004344707 72178.004344707 2604847644.3569
vector 11  BasicTopology.peer[5].bitTorrentApp.bitTorrentClient  DownloadComplete_Test:vector  ETV
attr source BitTorrentClient_DownloadComplete_Test
attr title "Descargas completas (prueba), vector"
11	42261 67 139 208985727 36001 36190.312734659353 2 36001 36190.312734659 72191.312734659 2605810736.8324
vector 13  BasicTopology.peer[6].bitTorrentApp.bitTorrentClient  DownloadComplete_Test:vector  ETV
attr source BitTorrentClient_DownloadComplete_Test
attr title "Descargas completas (prueba), vector"
13	42328 67 140 206677122 36001 36187.401631002539 2 36001 36187.401631003 72188.401631003 2605600037.8035
vector 15  BasicTopology.peer[7].bitTorrentApp.bitTorrentClient  DownloadComplete_Test:vector  ETV
attr source BitTorrentClient_DownloadComplete_Test
attr title "Descargas completas (prueba), vector"
15	42395 67 141 186574126 36001 36164.492393958211 2 36001 36164.492393958 72165.492393958 2603942511.1126
vector 17  BasicTopology.peer[8].bitTorrentApp.bitTorrentClient  DownloadComplete_Test:vector  ETV
attr source BitTorrentClient_DownloadComplete_Test
attr title "Descargas completas (prueba), vector"
17	42462 66 142 189964260 36001 36168.251770880495 2 36001 36168.25177088 72169.25177088 2604214437.1618
vector 19  BasicTopology.peer[9].bitTorrentApp.bitTorrentClient  DownloadComplete_Test:vector  ETV
attr source BitTorrentClient_DownloadComplete_Test
attr title "Descargas completas (prueba), vector"
19	42528 66 143 204648987 36001 36184.859198139885 2 36001 36184.85919814 72185.85919814 2605416036.1892
vector 21  BasicTopology.peer[10].bitTorrentApp.bitTorrentClient  DownloadComplete_Test:vector  ETV
attr source BitTorrentClient_DownloadComplete_Test
attr title "Descargas completas (prueba), vector"
21	42594 66 144 224399458 36001 36214.57321039679 2 36001 36214.573210397 72215.573210397 2607567313.8112
vector 23  BasicTopology.peer[11].bitTorrentApp.bitTorrentClient  DownloadComplete_Test:vector  ETV
attr source BitTorrentClient_DownloadComplete_Test
attr title "Descargas completas (prueba), vector"
23	42660 67 145 234229018 36001 36235.704851691324 2 36001 36235.704851691 72236.704851691 2609098307.0989
vector 25  BasicTopology.peer[12].bitTorrentApp.bitTorrentClient  DownloadComplete_Test:vector  ETV
attr source BitTorrentClient_DownloadComplete_Test
attr title "Descargas completas (prueba), vector"
25	42727 67 146 218822154 36001 36204.599637990943 2 36001 36204.599637991 72205.599637991 2606845035.9472
vector 27  BasicTopology.peer[13].bitTorrentApp.bitTorrentClient  DownloadComplete_Test:vector  ETV
attr source BitTorrentClient_DownloadComplete_Test
attr title "Descargas completas (prueba), vector"
27	42794 66 147 231702846 36001 36228.84562252228 2 36001 36228.845622522 72229.845622522 2608601256.1405
vector 29  BasicTopology.peer[14].bitTorrentApp.bitTorrentClient  DownloadComplete_Test:vector  ETV
attr source BitTorrentClient_DownloadComplete_Test
attr title "Descargas completas (prueba), vector"
29	42860 67 148 216890398 36001 36201.356716538819 2 36001 36201.356716539 72202.356716539 2606610229.1181
vector 31  BasicTopology.peer[15].bitTorrentApp.bitTorrentClient  DownloadComplete_Test:vector  ETV
attr source BitTorrentClient_DownloadComplete_Test
attr title "Descargas completas (prueba), vector"
31	42927 67 149 219840237 36001 36206.404175737498 2 36001 36206.404175737 72207.404175737 2606975704.3368
vector 33  BasicTopology.peer[16].bitTorrentApp.bitTorrentClient  DownloadComplete_Test:vector  ETV
attr source BitTorrentClient_DownloadComplete_Test
attr title "Descargas completas (prueba), vector"
33	42994 66 150 205079263 36001 36185.44192978405 2 36001 36185.441929784 72186.441929784 2605458208.6538
vector 35  BasicTopology.peer[17].bitTorrentApp.bitTorrentClient  DownloadComplete_Test:vector  ETV
attr source BitTorrentClient_DownloadComplete_Test
attr title "Descargas completas (prueba), vector"
35	43060 67 151 228658192 36001 36221.492025721544 2 36001 36221.492025722 72222.492025722 2608068485.5694
vector 37  BasicTopology.peer[18].bitTorrentApp.bitTorrentClient  DownloadComplete_Test:vector  ETV
attr source BitTorrentClient_DownloadComplete_Test
attr title "Descargas completas (prueba), vector"
37	43127 66 152 176952661 36001 36153.61955405179 2 36001 36153.619554052 72154.619554052 2603156207.8591
vector 39  BasicTopology.peer[19].bitTorrentApp.bitTorrentClient  DownloadComplete_Test:vector  ETV
attr source BitTorrentClient_DownloadComplete_Test
attr title "Descargas completas (prueba), vector"
39	43193 67 153 186900923 36001 36164.856083465758 2 36001 36164.856083466 72165.856083466 2603968816.5378
vector 41  BasicTopology.peer[20].bitTorrentApp.bitTorrentClient  DownloadComplete_Test:vector  ETV
attr source BitTorrentClient_DownloadComplete_Test
attr title "Descargas completas (prueba), vector"
41	43260 67 154 229851917 36001 36224.036895212935 2 36001 36224.036895213 72225.036895213 2608252849.9858
vector 43  BasicTopology.peer[21].bitTorrentApp.bitTorrentClient  DownloadComplete_Test:vector  ETV
attr source BitTorrentClient_DownloadComplete_Test
attr title "Descargas completas (prueba), vector"
43	43327 67 155 198019019 36001 36177.261957981035 2 36001 36177.261957981 72178.261957981 2604866283.7764
vector 45  BasicTopology.peer[22].bitTorrentApp.bitTorrentClient  DownloadComplete_Test:vector  ETV
attr source BitTorrentClient_DownloadComplete_Test
attr title "Descargas completas (prueba), vector"
45	43394 67 156 188324538 36001 36166.472655276301 2 36001 36166.472655276 72167.472655276 2604085745.3248
vector 47  BasicTopology.peer[23].bitTorrentApp.bitTorrentClient  DownloadComplete_Test:vector  ETV
attr source BitTorrentClient_DownloadComplete_Test
attr title "Descargas completas (prueba), vector"
47	43461 66 157 214573635 36001 36197.885387629926 2 36001 36197.88538763 72198.88538763 2606358907.536
vector 49  BasicTopology.peer[24].bitTorrentApp.bitTorrentClient  DownloadComplete_Test:vector  ETV
attr source BitTorrentClient_DownloadComplete_Test
attr title "Descargas completas (prueba), vector"
49	43527 67 158 204081225 36001 36184.239120315267 2 36001 36184.239120315 72185.239120315 2605371161.7161
vector 51  BasicTopology.peer[25].bitTorrentApp.bitTorrentClient  DownloadComplete_Test:vector  ETV
attr source BitTorrentClient_DownloadComplete_Test
attr title "Descargas completas (prueba), vector"
51	43594 67 159 227169928 36001 36219.018954697088 2 36001 36219.018954697 72220.018954697 2607889335.0407
vector 53  BasicTopology.peer[26].bitTorrentApp.bitTorrentClient  DownloadComplete_Test:vector  ETV
attr source BitTorrentClient_DownloadComplete_Test
attr title "Descargas completas (prueba), vector"
53	43661 66 160 225455696 36001 36216.055335810088 2 36001 36216.05533581 72217.05533581 2607674665.0865
vector 55  BasicTopology.peer[27].bitTorrentApp.bitTorrentClient  DownloadComplete_Test:vector  ETV
attr source BitTorrentClient_DownloadComplete_Test
attr title "Descargas completas (prueba), vector"
55	43727 67 161 233717336 36001 36234.478599191594 2 36001 36234.478599192 72235.478599192 2609009440.3553
vector 57  BasicTopology.peer[28].bitTorrentApp.bitTorrentClient  DownloadComplete_Test:vector  ETV
attr source BitTorrentClient_DownloadComplete_Test
attr title "Descargas completas (prueba), vector"
57	43794 67 162 225630603 36001 36216.269857198925 2 36001 36216.269857199 72217.269857199 2607690203.3695
vector 59  BasicTopology.peer[29].bitTorrentApp.bitTorrentClient  DownloadComplete_Test:vector  ETV
attr source BitTorrentClient_DownloadComplete_Test
attr title "Descargas completas (prueba), vector"
59	43861 67 163 199160834 36001 36178.509376550735 2 36001 36178.509376551 72179.509376551 2604956541.7092
vector 61  BasicTopology.peer[30].bitTorrentApp.bitTorrentClient  DownloadComplete_Test:vector  ETV
attr source BitTorrentClient_DownloadComplete_Test
attr title "Descargas completas (prueba), vector"
61	43928 67 164 132338415 36001 36112.432161199471 2 36001 36112.432161199 72113.432161199 2600179757.5972
vector 63  BasicTopology.peer[31].bitTorrentApp.bitTorrentClient  DownloadComplete_Test:vector  ETV
attr source BitTorrentClient_DownloadComplete_Test
attr title "Descargas completas (prueba), vector"
63	43995 67 165 237893409 36001 36302.510859197613 2 36001 36302.510859198 72303.510859198 2613944295.6822
vector 65  BasicTopology.peer[32].bitTorrentApp.bitTorrentClient  DownloadComplete_Test:vector  ETV
attr source BitTorrentClient_DownloadComplete_Test
attr title "Descargas completas (prueba), vector"
65	44062 67 166 185439473 36001 36163.249482740785 2 36001 36163.249482741 72164.249482741 2603852614.151
vector 67  BasicTopology.peer[33].bitTorrentApp.bitTorrentClient  DownloadComplete_Test:vector  ETV
attr source BitTorrentClient_DownloadComplete_Test
attr title "Descargas completas (prueba), vector"
67	44129 67 167 232634667 36001 36231.264465552694 2 36001 36231.264465553 72232.264465553 2608776525.7728
vector 69  BasicTopology.peer[34].bitTorrentApp.bitTorrentClient  DownloadComplete_Test:vector  ETV
attr source BitTorrentClient_DownloadComplete_Test
attr title "Descargas completas (prueba), vector"
69	44196 67 168 220731504 36001 36207.919414706441 2 36001 36207.919414706 72208.919414706 2607085429.3418
vector 71  BasicTopology.peer[35].bitTorrentApp.bitTorrentClient  DownloadComplete_Test:vector  ETV
attr source BitTorrentClient_DownloadComplete_Test
attr title "Descargas completas (prueba), vector"
71	44263 67 169 220555410 36001 36207.616722966338 2 36001 36207.616722966 72208.616722966 2607063509.7572
vector 73  BasicTopology.peer[36].bitTorrentApp.bitTorrentClient  DownloadComplete_Test:vector  ETV
attr source BitTorrentClient_DownloadComplete_Test
attr title "Descargas completas (prueba), vector"
73	44330 67 170 222179790 36001 36210.785726490684 2 36001 36210.785726491 72211.785726491 2607293003.9298
vector 75  BasicTopology.peer[37].bitTorrentApp.bitTorrentClient  DownloadComplete_Test:vector  ETV
attr source BitTorrentClient_DownloadComplete_Test
attr title "Descargas completas (prueba), vector"
75	44397 67 171 210277028 36001 36192.044355222148 2 36001 36192.044355222 72193.044355222 2605936075.6104
vector 77  BasicTopology.peer[38].bitTorrentApp.bitTorrentClient  DownloadComplete_Test:vector  ETV
attr source BitTorrentClient_DownloadComplete_Test
attr title "Descargas completas (prueba), vector"
77	44464 67 172 232460028 36001 36230.969453856706 2 36001 36230.969453857 72231.969453857 2608755148.5663
vector 79  BasicTopology.peer[39].bitTorrentApp.bitTorrentClient  DownloadComplete_Test:vector  ETV
attr source BitTorrentClient_DownloadComplete_Test
attr title "Descargas completas (prueba), vector"
79	44531 67 173 159740651 36001 36135.943161577464 2 36001 36135.943161577 72136.943161577 2601878389.1767
vector 81  BasicTopology.peer[40].bitTorrentApp.bitTorrentClient  DownloadComplete_Test:vector  ETV
attr source BitTorrentClient_DownloadComplete_Test
attr title "Descargas completas (prueba), vector"
81	44598 67 174 225415334 36001 36215.888859243933 2 36001 36215.888859244 72216.888859244 2607662606.8651
vector 83  BasicTopology.peer[41].bitTorrentApp.bitTorrentClient  DownloadComplete_Test:vector  ETV
attr source BitTorrentClient_DownloadComplete_Test
attr title "Descargas completas (prueba), vector"
83	44665 67 175 113144675 36001 36097.044633964576 2 36001 36097.044633965 72098.044633965 2599068632.3065
vector 85  BasicTopology.peer[42].bitTorrentApp.bitTorrentClient  DownloadComplete_Test:vector  ETV
attr source BitTorrentClient_DownloadComplete_Test
attr title "Descargas completas (prueba), vector"
85	44732 67 176 219277378 36001 36205.282777047687 2 36001 36205.282777048 72206.282777048 2606894501.966
vector 87  BasicTopology.peer[43].bitTorrentApp.bitTorrentClient  DownloadComplete_Test:vector  ETV
attr source BitTorrentClient_DownloadComplete_Test
attr title "Descargas completas (prueba), vector"
87	44799 66 177 220434275 36001 36207.41209131187 2 36001 36207.412091312 72208.412091312 2607048691.3501
vector 89  BasicTopology.peer[44].bitTorrentApp.bitTorrentClient  DownloadComplete_Test:vector  ETV
attr source BitTorrentClient_DownloadComplete_Test
attr title "Descargas completas (prueba), vector"
89	44865 67 178 206779501 36001 36187.495959704446 2 36001 36187.495959704 72188.495959704 2605606864.8336
vector 91  BasicTopology.peer[45].bitTorrentApp.bitTorrentClient  DownloadComplete_Test:vector  ETV
attr source BitTorrentClient_DownloadComplete_Test
attr title "Descargas completas (prueba), vector"
91	44932 67 179 237826624 36001 36302.381717757174 2 36001 36302.381717757 72303.381717757 2613934919.3817
vector 93  BasicTopology.peer[46].bitTorrentApp.bitTorrentClient  DownloadComplete_Test:vector  ETV
attr source BitTorrentClient_DownloadComplete_Test
attr title "Descargas completas (prueba), vector"
93	44999 67 180 226901946 36001 36218.604633396439 2 36001 36218.604633396 72219.604633396 2607859322.5903
vector 95  BasicTopology.peer[47].bitTorrentApp.bitTorrentClient  DownloadComplete_Test:vector  ETV
attr source BitTorrentClient_DownloadComplete_Test
attr title "Descargas completas (prueba), vector"
95	45066 67 181 229885525 36001 36224.435239405463 2 36001 36224.435239405 72225.435239405 2608281709.4138
vector 97  BasicTopology.peer[48].bitTorrentApp.bitTorrentClient  DownloadComplete_Test:vector  ETV
attr source BitTorrentClient_DownloadComplete_Test
attr title "Descargas completas (prueba), vector"
97	45133 67 182 222355262 36001 36211.231730683289 2 36001 36211.231730683 72212.231730683 2607325304.4532
vector 99  BasicTopology.peer[49].bitTorrentApp.bitTorrentClient  DownloadComplete_Test:vector  ETV
attr source BitTorrentClient_DownloadComplete_Test
attr title "Descargas completas (prueba), vector"
99	45200 67 183 203076024 36001 36183.168662764517 2 36001 36183.168662765 72184.168662765 2605293695.4781
vector 1633  BasicTopology.peer[0].bitTorrentApp.bitTorrentClient.contentManager_51  TotalBytesUploaded:vector  ETV
attr source ContentManager_TotalBytesUploaded
attr title "Total of Bytes Uploaded, vector"
attr unit B
1633	45267 12330 223396 229540034 36001.070284932963 36223.563996693 304 32768 9961472 1519124480 1.010507020501e+16
vector 1640  BasicTopology.peer[1].bitTorrentApp.bitTorrentClient.contentManager_51  TotalBytesDownloaded:vector  ETV
attr source ContentManager_TotalBytesDownloaded
attr title "Total of Bytes Downloaded, vector"
attr unit B
1640	58017 3882 1661927 123477255 36002.894998181142 36105.329706668455 96 32768 3145728 152567808 3.2162433099366e+14
vector 1872  BasicTopology.peer[30].bitTorrentApp.bitTorrentClient.contentManager_51  TotalBytesDownloaded:vector  ETV
attr source ContentManager_TotalBytesDownloaded
attr title "Total of Bytes Downloaded, vector"
attr unit B
1872	301683 3878 1817615 132338415 36003.196453543558 36112.432161199471 96 32768 3145728 152567808 3.2162433099366e+14
vector 1871  BasicTopology.peer[30].bitTorrentApp.bitTorrentClient.contentManager_51  PiecesDownloaded:vector  ETV
attr source ContentManager_PieceDownloaded
attr title "Pieces Downloaded, vector"
1871	301262 421 1991151 132338415 36003.805098609132 36112.432161199471 12 0 11 66 506
vector 1873  BasicTopology.peer[30].bitTorrentApp.bitTorrentClient.contentManager_51  TotalBytesUploaded:vector  ETV
attr source ContentManager_TotalBytesUploaded
attr title "Total of Bytes Uploaded, vector"
attr unit B
1873	305561 11693 2040380 192320110 36003.925660243783 36170.867373801436 288 32768 9437184 1363673088 8.5943841781187e+15
vector 1736  BasicTopology.peer[13].bitTorrentApp.bitTorrentClient.contentManager_51  TotalBytesDownloaded:vector  ETV
attr source ContentManager_TotalBytesDownloaded
attr title "Total of Bytes Downloaded, vector"
attr unit B
1736	176163 3933 2611946 231702846 36004.324538026216 36228.84562252228 96 32768 3145728 152567808 3.2162433099366e+14
vector 1816  BasicTopology.peer[23].bitTorrentApp.bitTorrentClient.contentManager_51  TotalBytesDownloaded:vector  ETV
attr source ContentManager_TotalBytesDownloaded
attr title "Total of Bytes Downloaded, vector"
attr unit B
1816	247785 4345 3474177 214573635 36005.463146944271 36197.885387629926 106 32768 3473408 185827328 4.3233248175718e+14
vector 1840  BasicTopology.peer[26].bitTorrentApp.bitTorrentClient.contentManager_51  TotalBytesDownloaded:vector  ETV
attr source ContentManager_TotalBytesDownloaded
attr title "Total of Bytes Downloaded, vector"
attr unit B
1840	272169 4681 3677085 225455696 36005.678521133741 36216.055335810088 114 32768 3735552 214794240 5.3726282776576e+14
vector 1808  BasicTopology.peer[22].bitTorrentApp.bitTorrentClient.contentManager_51  TotalBytesDownloaded:vector  ETV
attr source ContentManager_TotalBytesDownloaded
attr title "Total of Bytes Downloaded, vector"
attr unit B
1808	239454 3916 3782752 188324538 36005.805109601197 36166.472655276301 96 32768 3145728 152567808 3.2162433099366e+14
vector 1639  BasicTopology.peer[1].bitTorrentApp.bitTorrentClient.contentManager_51  PiecesDownloaded:vector  ETV
attr source ContentManager_PieceDownloaded
attr title "Pieces Downloaded, vector"
1639	57597 420 4014884 123477255 36006.448875020745 36105.329706668455 12 0 11 66 506
vector 1641  BasicTopology.peer[1].bitTorrentApp.bitTorrentClient.contentManager_51  TotalBytesUploaded:vector  ETV
attr source ContentManager_TotalBytesUploaded
attr title "Total of Bytes Uploaded, vector"
attr unit B
1641	61899 10849 4027312 219965015 36006.471938635613 36206.6395126548 266 32768 8716288 1163624448 6.7743670903767e+15
vector 1664  BasicTopology.peer[4].bitTorrentApp.bitTorrentClient.contentManager_51  TotalBytesDownloaded:vector  ETV
attr source ContentManager_TotalBytesDownloaded
attr title "Total of Bytes Downloaded, vector"
attr unit B
1664	91978 4567 4085833 213358211 36006.631793830181 36196.118382975218 112 32768 3670016 207355904 5.095978696704e+14
vector 1792  BasicTopology.peer[20].bitTorrentApp.bitTorrentClient.contentManager_51  TotalBytesDownloaded:vector  ETV
attr source ContentManager_TotalBytesDownloaded
attr title "Total of Bytes Downloaded, vector"
attr unit B
1792	220900 3936 4740699 229851917 36007.979004616893 36224.036895212935 96 32768 3145728 152567808 3.2162433099366e+14
vector 1807  BasicTopology.peer[22].bitTorrentApp.bitTorrentClient.contentManager_51  PiecesDownloaded:vector  ETV
attr source ContentManager_PieceDownloaded
attr title "Pieces Downloaded, vector"
1807	239029 425 4929763 188324538 36008.297760537328 36166.472655276301 12 0 11 66 506
vector 1809  BasicTopology.peer[22].bitTorrentApp.bitTorrentClient.contentManager_51  TotalBytesUploaded:vector  ETV
attr source ContentManager_TotalBytesUploaded
attr title "Total of Bytes Uploaded, vector"
attr unit B
1809	243370 3989 4961732 105019586 36008.32214337608 36090.904882170805 99 32768 3244032 162201600 3.525631279104e+14
vector 1712  BasicTopology.peer[10].bitTorrentApp.bitTorrentClient.contentManager_51  TotalBytesDownloaded:vector  ETV
attr source ContentManager_TotalBytesDownloaded
attr title "Total of Bytes Downloaded, vector"
attr unit B
1712	151619 3885 5520453 224399458 36008.944759488289 36214.57321039679 96 32768 3145728 152567808 3.2162433099366e+14
vector 1672  BasicTopology.peer[5].bitTorrentApp.bitTorrentClient.contentManager_51  TotalBytesDownloaded:vector  ETV
attr source ContentManager_TotalBytesDownloaded
attr title "Total of Bytes Downloaded, vector"
attr unit B
1672	108200 3922 5619657 208985727 36009.252491013993 36190.312734659353 96 32768 3145728 152567808 3.2162433099366e+14
vector 1688  BasicTopology.peer[7].bitTorrentApp.bitTorrentClient.contentManager_51  TotalBytesDownloaded:vector  ETV
attr source ContentManager_TotalBytesDownloaded
attr title "Total of Bytes Downloaded, vector"
attr unit B
1688	129138 3944 5817023 186574126 36009.748579836337 36164.492393958211 96 32768 3145728 152567808 3.2162433099366e+14
vector 1711  BasicTopology.peer[10].bitTorrentApp.bitTorrentClient.contentManager_51  PiecesDownloaded:vector  ETV
attr source ContentManager_PieceDownloaded
attr title "Pieces Downloaded, vector"
1711	151200 419 6387214 224399458 36010.317701400853 36214.57321039679 12 0 11 66 506
vector 1713  BasicTopology.peer[10].bitTorrentApp.bitTorrentClient.contentManager_51  TotalBytesUploaded:vector  ETV
attr source ContentManager_TotalBytesUploaded
attr title "Total of Bytes Uploaded, vector"
attr unit B
1713	155504 9188 6434946 224442177 36010.380432748135 36214.625258250167 225 32768 7372800 833126400 4.1040828432384e+15
vector 1791  BasicTopology.peer[20].bitTorrentApp.bitTorrentClient.contentManager_51  PiecesDownloaded:vector  ETV
attr source ContentManager_PieceDownloaded
attr title "Pieces Downloaded, vector"
1791	220475 425 6553627 229851917 36010.518509983998 36224.036895212935 12 0 11 66 506
vector 1793  BasicTopology.peer[20].bitTorrentApp.bitTorrentClient.contentManager_51  TotalBytesUploaded:vector  ETV
attr source ContentManager_TotalBytesUploaded
attr title "Total of Bytes Uploaded, vector"
attr unit B
1793	224836 6880 6586030 226733490 36010.547985654078 36218.252637831982 168 32768 5505024 465174528 1.7122789068636e+15
vector 1839  BasicTopology.peer[26].bitTorrentApp.bitTorrentClient.contentManager_51  PiecesDownloaded:vector  ETV
attr source ContentManager_PieceDownloaded
attr title "Pieces Downloaded, vector"
1839	271742 427 6800673 225455696 36010.723385565738 36216.055335810088 12 0 11 66 506
vector 1841  BasicTopology.peer[26].bitTorrentApp.bitTorrentClient.contentManager_51  TotalBytesUploaded:vector  ETV
attr source ContentManager_TotalBytesUploaded
attr title "Total of Bytes Uploaded, vector"
attr unit B
1841	276850 2245 6842560 162696048 36010.764788676587 36138.748996684358 56 32768 1835008 52297728 64549063491584
vector 1768  BasicTopology.peer[17].bitTorrentApp.bitTorrentClient.contentManager_51  TotalBytesDownloaded:vector  ETV
attr source ContentManager_TotalBytesDownloaded
attr title "Total of Bytes Downloaded, vector"
attr unit B
1768	203837 4366 6880482 228658192 36010.82050369524 36221.492025721544 106 32768 3473408 185827328 4.3233248175718e+14
vector 1720  BasicTopology.peer[11].bitTorrentApp.bitTorrentClient.contentManager_51  TotalBytesDownloaded:vector  ETV
attr source ContentManager_TotalBytesDownloaded
attr title "Total of Bytes Downloaded, vector"
attr unit B
1720	165122 4293 7016782 234229018 36011.072941918387 36235.704851691324 104 32768 3407872 178913280 4.0842991501312e+14
vector 1663  BasicTopology.peer[4].bitTorrentApp.bitTorrentClient.contentManager_51  PiecesDownloaded:vector  ETV
attr source ContentManager_PieceDownloaded
attr title "Pieces Downloaded, vector"
1663	91555 423 7213764 197773478 36011.538368725146 36177.004344706687 12 0 11 66 506
vector 1665  BasicTopology.peer[4].bitTorrentApp.bitTorrentClient.contentManager_51  TotalBytesUploaded:vector  ETV
attr source ContentManager_TotalBytesUploaded
attr title "Total of Bytes Uploaded, vector"
attr unit B
1665	96545 11229 7243767 213398861 36011.592840276769 36196.18718504627 275 32768 9011200 1243545600 7.4841415745536e+15
vector 2000  BasicTopology.peer[46].bitTorrentApp.bitTorrentClient.contentManager_51  TotalBytesDownloaded:vector  ETV
attr source ContentManager_TotalBytesDownloaded
attr title "Total of Bytes Downloaded, vector"
attr unit B
2000	442504 3929 7298467 226901946 36011.678248194893 36218.604633396439 96 32768 3145728 152567808 3.2162433099366e+14
vector 1992  BasicTopology.peer[45].bitTorrentApp.bitTorrentClient.contentManager_51  TotalBytesDownloaded:vector  ETV
attr source ContentManager_TotalBytesDownloaded
attr title "Total of Bytes Downloaded, vector"
attr unit B
1992	431423 3930 7357578 237826624 36011.814664961252 36302.381717757174 96 32768 3145728 152567808 3.2162433099366e+14
vector 1656  BasicTopology.peer[3].bitTorrentApp.bitTorrentClient.contentManager_51  TotalBytesDownloaded:vector  ETV
attr source ContentManager_TotalBytesDownloaded
attr title "Total of Bytes Downloaded, vector"
attr unit B
1656	82207 4096 7455910 222585283 36011.980867155227 36211.620194124271 100 32768 3276800 165478400 3.633005461504e+14
vector 2008  BasicTopology.peer[47].bitTorrentApp.bitTorrentClient.contentManager_51  TotalBytesDownloaded:vector  ETV
attr source ContentManager_TotalBytesDownloaded
attr title "Total of Bytes Downloaded, vector"
attr unit B
2008	451818 3939 7524686 229885525 36012.070145248358 36224.435239405463 96 32768 3145728 152567808 3.2162433099366e+14
vector 1704  BasicTopology.peer[9].bitTorrentApp.bitTorrentClient.contentManager_51  TotalBytesDownloaded:vector  ETV
attr source ContentManager_TotalBytesDownloaded
attr title "Total of Bytes Downloaded, vector"
attr unit B
1704	142820 3936 7778425 204648987 36012.300217277155 36184.859198139885 96 32768 3145728 152567808 3.2162433099366e+14
vector 1680  BasicTopology.peer[6].bitTorrentApp.bitTorrentClient.contentManager_51  TotalBytesDownloaded:vector  ETV
attr source ContentManager_TotalBytesDownloaded
attr title "Total of Bytes Downloaded, vector"
attr unit B
1680	119422 3919 8107576 206677122 36012.58180517682 36187.401631002539 96 32768 3145728 152567808 3.2162433099366e+14
vector 1735  BasicTopology.peer[13].bitTorrentApp.bitTorrentClient.contentManager_51  PiecesDownloaded:vector  ETV
attr source ContentManager_PieceDownloaded
attr title "Pieces Downloaded, vector"
1735	175737 426 8923422 231702846 36013.345090649328 36228.84562252228 12 0 11 66 506
vector 1737  BasicTopology.peer[13].bitTorrentApp.bitTorrentClient.contentManager_51  TotalBytesUploaded:vector  ETV
attr source ContentManager_TotalBytesUploaded
attr title "Total of Bytes Uploaded, vector"
attr unit B
1737	180096 5506 8996937 168416798 36013.411175511346 36144.581186007965 136 32768 4456448 305266688 9.1027107374694e+14
vector 1784  BasicTopology.peer[19].bitTorrentApp.bitTorrentClient.contentManager_51  TotalBytesDownloaded:vector  ETV
attr source ContentManager_TotalBytesDownloaded
attr title "Total of Bytes Downloaded, vector"
attr unit B
1784	214626 3953 9237131 186900923 36013.723909788021 36164.856083465758 96 32768 3145728 152567808 3.2162433099366e+14
vector 2007  BasicTopology.peer[47].bitTorrentApp.bitTorrentClient.contentManager_51  PiecesDownloaded:vector  ETV
attr source ContentManager_PieceDownloaded
attr title "Pieces Downloaded, vector"
2007	451390 428 9696897 229885525 36014.268165962632 36224.435239405463 12 0 11 66 506
vector 2009  BasicTopology.peer[47].bitTorrentApp.bitTorrentClient.contentManager_51  TotalBytesUploaded:vector  ETV
attr source ContentManager_TotalBytesUploaded
attr title "Total of Bytes Uploaded, vector"
attr unit B
2009	455757 4189 9771955 97133982 36014.325059149857 36084.915931871247 104 32768 3407872 178913280 4.0842991501312e+14
vector 1832  BasicTopology.peer[25].bitTorrentApp.bitTorrentClient.contentManager_51  TotalBytesDownloaded:vector  ETV
attr source ContentManager_TotalBytesDownloaded
attr title "Total of Bytes Downloaded, vector"
attr unit B
1832	264301 3945 9907330 227169928 36014.449060458988 36219.018954697088 96 32768 3145728 152567808 3.2162433099366e+14
vector 1831  BasicTopology.peer[25].bitTorrentApp.bitTorrentClient.contentManager_51  PiecesDownloaded:vector  ETV
attr source ContentManager_PieceDownloaded
attr title "Pieces Downloaded, vector"
1831	263872 429 10283229 227169928 36014.843686085146 36219.018954697088 12 0 11 66 506
vector 1728  BasicTopology.peer[12].bitTorrentApp.bitTorrentClient.contentManager_51  TotalBytesDownloaded:vector  ETV
attr source ContentManager_TotalBytesDownloaded
attr title "Total of Bytes Downloaded, vector"
attr unit B
1728	169843 3956 10330854 218822154 36014.887301190283 36204.599637990943 96 32768 3145728 152567808 3.2162433099366e+14
vector 1671  BasicTopology.peer[5].bitTorrentApp.bitTorrentClient.contentManager_51  PiecesDownloaded:vector  ETV
attr source ContentManager_PieceDownloaded
attr title "Pieces Downloaded, vector"
1671	107774 426 10421570 208985727 36014.968975902042 36190.312734659353 12 0 11 66 506
vector 1673  BasicTopology.peer[5].bitTorrentApp.bitTorrentClient.contentManager_51  TotalBytesUploaded:vector  ETV
attr source ContentManager_TotalBytesUploaded
attr title "Total of Bytes Uploaded, vector"
attr unit B
1673	112122 6875 10481127 97290135 36015.023278960048 36085.048475203431 169 32768 5537792 470712320 1.7429460470989e+15