file 480374 1593887682                                          
version 2
run Test-5-20200525-12:22:50-6572
attr configname Test
attr datetime 20200525-12:22:50
attr experiment "\"Simulation Test\""
attr inifile BasicConfig.ini
attr iterationvars ""
attr iterationvars2 $repetition=5
attr measurement "\"Peers: $peers, Rate: $rate\""
attr network BasicTopology
attr processid 6572
attr repetition 5
attr replication #5
attr resultdir results
attr runnumber 5
attr seedset 5
vector 3  BasicTopology.peer[1].bitTorrentApp.bitTorrentClient  DownloadComplete_Test:vector  ETV
attr source BitTorrentClient_DownloadComplete_Test
attr title "Descargas completas (prueba), vector"
3	42216 64 135 116099315 36001 36098.433759890368 2 36001 36098.43375989 72099.43375989 2599168920.9172
vector 5  BasicTopology.peer[2].bitTorrentApp.bitTorrentClient  DownloadComplete_Test:vector  ETV
attr source BitTorrentClient_DownloadComplete_Test
attr title "Descargas completas (prueba), vector"
5	42280 63 136 144810004 36001 36121.2904061187 2 36001 36121.290406119 72122.290406119 2600819621.6032
vector 7  BasicTopology.peer[3].bitTorrentApp.bitTorrentClient  DownloadComplete_Test:vector  ETV
attr source BitTorrentClient_DownloadComplete_Test
attr title "Descargas completas (prueba), vector"
7	42343 65 137 160129622 36001 36134.628020184677 2 36001 36134.628020185 72135.628020185 2601783343.1571
vector 9  BasicTopology.peer[4].bitTorrentApp.bitTorrentClient  DownloadComplete_Test:vector  ETV
attr source BitTorrentClient_DownloadComplete_Test
attr title "Descargas completas (prueba), vector"
9	42408 65 138 208404418 36001 36183.146470347589 2 36001 36183.146470348 72184.146470348 2605292089.4947
vector 11  BasicTopology.peer[5].bitTorrentApp.bitTorrentClient  DownloadComplete_Test:vector  ETV
attr source BitTorrentClient_DownloadComplete_Test
attr title "Descargas completas (prueba), vector"
11	42473 67 139 224099382 36001 36202.767813335839 2 36001 36202.767813336 72203.767813336 2606712398.3463
vector 13  BasicTopology.peer[6].bitTorrentApp.bitTorrentClient  DownloadComplete_Test:vector  ETV
attr source BitTorrentClient_DownloadComplete_Test
attr title "Descargas completas (prueba), vector"
13	42540 65 140 240515791 36001 36226.615222599544 2 36001 36226.6152226 72227.6152226 2608439651.4863
vector 15  BasicTopology.peer[7].bitTorrentApp.bitTorrentClient  DownloadComplete_Test:vector  ETV
attr source BitTorrentClient_DownloadComplete_Test
attr title "Descargas completas (prueba), vector"
15	42605 66 141 192394082 36001 36165.477100219958 2 36001 36165.47710022 72166.47710022 2604013734.8865
vector 17  BasicTopology.peer[8].bitTorrentApp.bitTorrentClient  DownloadComplete_Test:vector  ETV
attr source BitTorrentClient_DownloadComplete_Test
attr title "Descargas completas (prueba), vector"
17	42671 67 142 239243519 36001 36224.132823403534 2 36001 36224.132823404 72225.132823404 2608259799.8076
vector 19  BasicTopology.peer[9].bitTorrentApp.bitTorrentClient  DownloadComplete_Test:vector  ETV
attr source BitTorrentClient_DownloadComplete_Test
attr title "Descargas completas (prueba), vector"
19	42738 67 143 183177391 36001 36156.022316960661 2 36001 36156.022316961 72157.022316961 2603329950.7846
vector 21  BasicTopology.peer[10].bitTorrentApp.bitTorrentClient  DownloadComplete_Test:vector  ETV
attr source BitTorrentClient_DownloadComplete_Test
attr title "Descargas completas (prueba), vector"
21	42805 67 144 151392563 36001 36127.002194762135 2 36001 36127.002194762 72128.002194762 2601232288.5803
vector 23  BasicTopology.peer[11].bitTorrentApp.bitTorrentClient  DownloadComplete_Test:vector  ETV
attr source BitTorrentClient_DownloadComplete_Test
attr title "Descargas completas (prueba), vector"
23	42872 67 145 139462400 36001 36116.932981893325 2 36001 36116.932981893 72117.932981893 2600504849.0185
vector 25  BasicTopology.peer[12].bitTorrentApp.bitTorrentClient  DownloadComplete_Test:vector  ETV
attr source BitTorrentClient_DownloadComplete_Test
attr title "Descargas completas (prueba), vector"
25	42939 67 146 241458936 36001 36228.796308777981 2 36001 36228.796308778 72229.796308778 2608597682.9829
vector 27  BasicTopology.peer[13].bitTorrentApp.bitTorrentClient  DownloadComplete_Test:vector  ETV
attr source BitTorrentClient_DownloadComplete_Test
attr title "Descargas completas (prueba), vector"
27	43006 67 147 218883029 36001 36195.770085676107 2 36001 36195.770085676 72196.770085676 2606205773.0951
vector 29  BasicTopology.peer[14].bitTorrentApp.bitTorrentClient  DownloadComplete_Test:vector  ETV
attr source BitTorrentClient_DownloadComplete_Test
attr title "Descargas completas (prueba), vector"
29	43073 67 148 177451630 36001 36150.612228118549 2 36001 36150.612228119 72151.612228119 2602938765.4678
vector 31  BasicTopology.peer[15].bitTorrentApp.bitTorrentClient  DownloadComplete_Test:vector  ETV
attr source BitTorrentClient_DownloadComplete_Test
attr title "Descargas completas (prueba), vector"
31	43140 67 149 241760842 36001 36229.947288861516 2 36001 36229.947288862 72230.947288862 2608681081.5537
vector 33  BasicTopology.peer[16].bitTorrentApp.bitTorrentClient  DownloadComplete_Test:vector  ETV
attr source BitTorrentClient_DownloadComplete_Test
attr title "Descargas completas (prueba), vector"
33	43207 67 150 169638997 36001 36143.304303902561 2 36001 36143.304303903 72144.304303903 2602410447.0045
vector 35  BasicTopology.peer[17].bitTorrentApp.bitTorrentClient  DownloadComplete_Test:vector  ETV
attr source BitTorrentClient_DownloadComplete_Test
attr title "Descargas completas (prueba), vector"
35	43274 67 151 218122259 36001 36194.847810751592 2 36001 36194.847810752 72195.847810752 2606139009.0435
vector 37  BasicTopology.peer[18].bitTorrentApp.bitTorrentClient  DownloadComplete_Test:vector  ETV
attr source BitTorrentClient_DownloadComplete_Test
attr title "Descargas completas (prueba), vector"
37	43341 67 152 239401667 36001 36224.310317176745 2 36001 36224.310317177 72225.310317177 2608272658.9551
vector 39  BasicTopology.peer[19].bitTorrentApp.bitTorrentClient  DownloadComplete_Test:vector  ETV
attr source BitTorrentClient_DownloadComplete_Test
attr title "Descargas completas (prueba), vector"
39	43408 66 153 187485193 36001 36160.48107111522 2 36001 36160.481071115 72161.481071115 2603652392.2945
vector 41  BasicTopology.peer[20].bitTorrentApp.bitTorrentClient  DownloadComplete_Test:vector  ETV
attr source BitTorrentClient_DownloadComplete_Test
attr title "Descargas completas (prueba), vector"
41	43474 66 154 188166106 36001 36161.118303019863 2 36001 36161.11830302 72162.11830302 2603698477.925
vector 43  BasicTopology.peer[21].bitTorrentApp.bitTorrentClient  DownloadComplete_Test:vector  ETV
attr source BitTorrentClient_DownloadComplete_Test
attr title "Descargas completas (prueba), vector"
43	43540 66 155 188511910 36001 36161.45009422841 2 36001 36161.450094228 72162.450094228 2603722473.9173
vector 45  BasicTopology.peer[22].bitTorrentApp.bitTorrentClient  DownloadComplete_Test:vector  ETV
attr source BitTorrentClient_DownloadComplete_Test
attr title "Descargas completas (prueba), vector"
45	43606 66 156 221956629 36001 36199.943176119821 2 36001 36199.94317612 72200.94317612 2606507886.9543
vector 47  BasicTopology.peer[23].bitTorrentApp.bitTorrentClient  DownloadComplete_Test:vector  ETV
attr source BitTorrentClient_DownloadComplete_Test
attr title "Descargas completas (prueba), vector"
47	43672 67 157 168809796 36001 36142.547071777999 2 36001 36142.547071778 72143.547071778 2602355709.8357
vector 49  BasicTopology.peer[24].bitTorrentApp.bitTorrentClient  DownloadComplete_Test:vector  ETV
attr source BitTorrentClient_DownloadComplete_Test
attr title "Descargas completas (prueba), vector"
49	43739 67 158 231197040 36001 36212.540745864903 2 36001 36212.540745865 72213.540745865 2607420108.2709
vector 51  BasicTopology.peer[25].bitTorrentApp.bitTorrentClient  DownloadComplete_Test:vector  ETV
attr source BitTorrentClient_DownloadComplete_Test
attr title "Descargas completas (prueba), vector"
51	43806 67 159 232349069 36001 36214.256693747406 2 36001 36214.256693747 72215.256693747 2607544388.8806
vector 53  BasicTopology.peer[26].bitTorrentApp.bitTorrentClient  DownloadComplete_Test:vector  ETV
attr source BitTorrentClient_DownloadComplete_Test
attr title "Descargas completas (prueba), vector"
53	43873 67 160 229468161 36001 36210.023557158927 2 36001 36210.023557159 72211.023557159 2607237807.01
vector 55  BasicTopology.peer[27].bitTorrentApp.bitTorrentClient  DownloadComplete_Test:vector  ETV
attr source BitTorrentClient_DownloadComplete_Test
attr title "Descargas completas (prueba), vector"
55	43940 67 161 230201358 36001 36210.938725551268 2 36001 36210.938725551 72211.938725551 2607304084.3856
vector 57  BasicTopology.peer[28].bitTorrentApp.bitTorrentClient  DownloadComplete_Test:vector  ETV
attr source BitTorrentClient_DownloadComplete_Test
attr title "Descargas completas (prueba), vector"
57	44007 67 162 242551366 36001 36236.196378081419 2 36001 36236.196378081 72237.196378081 2609133928.9509
vector 59  BasicTopology.peer[29].bitTorrentApp.bitTorrentClient  DownloadComplete_Test:vector  ETV
attr source BitTorrentClient_DownloadComplete_Test
attr title "Descargas completas (prueba), vector"
59	44074 67 163 219337147 36001 36196.375135872716 2 36001 36196.375135873 72197.375135873 2606249573.9768
vector 61  BasicTopology.peer[30].bitTorrentApp.bitTorrentClient  DownloadComplete_Test:vector  ETV
attr source BitTorrentClient_DownloadComplete_Test
attr title "Descargas completas (prueba), vector"
61	44141 67 164 167972798 36001 36141.793972480944 2 36001 36141.793972481 72142.793972481 2602301272.5493
vector 63  BasicTopology.peer[31].bitTorrentApp.bitTorrentClient  DownloadComplete_Test:vector  ETV
attr source BitTorrentClient_DownloadComplete_Test
attr title "Descargas completas (prueba), vector"
63	44208 67 165 222860070 36001 36201.026799440819 2 36001 36201.026799441 72202.026799441 2606586342.3338
vector 65  BasicTopology.peer[32].bitTorrentApp.bitTorrentClient  DownloadComplete_Test:vector  ETV
attr source BitTorrentClient_DownloadComplete_Test
attr title "Descargas completas (prueba), vector"
65	44275 67 166 229259780 36001 36209.691290937635 2 36001 36209.691290938 72210.691290938 2607213744.385
vector 67  BasicTopology.peer[33].bitTorrentApp.bitTorrentClient  DownloadComplete_Test:vector  ETV
attr source BitTorrentClient_DownloadComplete_Test
attr title "Descargas completas (prueba), vector"
67	44342 67 167 213667266 36001 36189.049532535416 2 36001 36189.049532535 72190.049532535 2605719307.0683
vector 69  BasicTopology.peer[34].bitTorrentApp.bitTorrentClient  DownloadComplete_Test:vector  ETV
attr source BitTorrentClient_DownloadComplete_Test
attr title "Descargas completas (prueba), vector"
69	44409 67 168 241827415 36001 36230.127681346958 2 36001 36230.127681347 72231.127681347 2608694152.8067
vector 71  BasicTopology.peer[35].bitTorrentApp.bitTorrentClient  DownloadComplete_Test:vector  ETV
attr source BitTorrentClient_DownloadComplete_Test
attr title "Descargas completas (prueba), vector"
71	44476 67 169 239864883 36001 36225.600479114901 2 36001 36225.600479115 72226.600479115 2608366131.0725
vector 73  BasicTopology.peer[36].bitTorrentApp.bitTorrentClient  DownloadComplete_Test:vector  ETV
attr source BitTorrentClient_DownloadComplete_Test
attr title "Descargas completas (prueba), vector"
73	44543 67 170 214404264 36001 36189.777445618265 2 36001 36189.777445618 72190.777445618 2605771992.5634
vector 75  BasicTopology.peer[37].bitTorrentApp.bitTorrentClient  DownloadComplete_Test:vector  ETV
attr source BitTorrentClient_DownloadComplete_Test
attr title "Descargas completas (prueba), vector"
75	44610 67 171 218631351 36001 36195.336096352324 2 36001 36195.336096352 72196.336096352 2606174356.1279
vector 77  BasicTopology.peer[38].bitTorrentApp.bitTorrentClient  DownloadComplete_Test:vector  ETV
attr source BitTorrentClient_DownloadComplete_Test
attr title "Descargas completas (prueba), vector"
77	44677 67 172 213618411 36001 36188.999489887602 2 36001 36188.999489888 72189.999489888 2605715685.0791
vector 79  BasicTopology.peer[39].bitTorrentApp.bitTorrentClient  DownloadComplete_Test:vector  ETV
attr source BitTorrentClient_DownloadComplete_Test
attr title "Descargas completas (prueba), vector"
79	44744 67 173 236242926 36001 36220.148994251027 2 36001 36220.148994251 72221.148994251 2607971194.1657
vector 81  BasicTopology.peer[40].bitTorrentApp.bitTorrentClient  DownloadComplete_Test:vector  ETV
attr source BitTorrentClient_DownloadComplete_Test
attr title "Descargas completas (prueba), vector"
81	44811 66 174 191048915 36001 36164.079452969904 2 36001 36164.07945297 72165.07945297 2603912643.6807
vector 83  BasicTopology.peer[41].bitTorrentApp.bitTorrentClient  DownloadComplete_Test:vector  ETV
attr source BitTorrentClient_DownloadComplete_Test
attr title "Descargas completas (prueba), vector"
83	44877 64 175 231664823 36001 36213.131235000233 2 36001 36213.131235 72214.131235 2607462874.8433
vector 85  BasicTopology.peer[42].bitTorrentApp.bitTorrentClient  DownloadComplete_Test:vector  ETV
attr source BitTorrentClient_DownloadComplete_Test
attr title "Descargas completas (prueba), vector"
85	44941 67 176 214906456 36001 36190.414588768503 2 36001 36190.414588769 72191.414588769 2605818109.107
vector 87  BasicTopology.peer[43].bitTorrentApp.bitTorrentClient  DownloadComplete_Test:vector  ETV
attr source BitTorrentClient_DownloadComplete_Test
attr title "Descargas completas (prueba), vector"
87	45008 66 177 227837099 36001 36207.829625020348 2 36001 36207.82962502 72208.82962502 2607078927.1545
vector 89  BasicTopology.peer[44].bitTorrentApp.bitTorrentClient  DownloadComplete_Test:vector  ETV
attr source BitTorrentClient_DownloadComplete_Test
attr title "Descargas completas (prueba), vector"
89	45074 67 178 216597875 36001 36192.648553774929 2 36001 36192.648553775 72193.648553775 2605979810.3371
vector 91  BasicTopology.peer[45].bitTorrentApp.bitTorrentClient  DownloadComplete_Test:vector  ETV
attr source BitTorrentClient_DownloadComplete_Test
attr title "Descargas completas (prueba), vector"
91	45141 67 179 233517871 36001 36216.003875883159 2 36001 36216.003875883 72217.003875883 2607670937.738
vector 93  BasicTopology.peer[46].bitTorrentApp.bitTorrentClient  DownloadComplete_Test:vector  ETV
attr source BitTorrentClient_DownloadComplete_Test
attr title "Descargas completas (prueba), vector"
93	45208 66 180 200896530 36001 36175.08781508367 2 36001 36175.087815084 72176.087815084 2604708979.429
vector 95  BasicTopology.peer[47].bitTorrentApp.bitTorrentClient  DownloadComplete_Test:vector  ETV
attr source BitTorrentClient_DownloadComplete_Test
attr title "Descargas completas (prueba), vector"
95	45274 67 181 222535711 36001 36200.717370994812 2 36001 36200.717370995 72201.717370995 2606563939.1747
vector 97  BasicTopology.peer[48].bitTorrentApp.bitTorrentClient  DownloadComplete_Test:vector  ETV
attr source BitTorrentClient_DownloadComplete_Test
attr title "Descargas completas (prueba), vector"
97	45341 67 182 242105406 36001 36230.928789532338 2 36001 36230.928789532 72231.928789532 2608752201.9521
vector 99  BasicTopology.peer[49].bitTorrentApp.bitTorrentClient  DownloadComplete_Test:vector  ETV
attr source BitTorrentClient_DownloadComplete_Test
attr title "Descargas completas (prueba), vector"
99	45408 67 183 241693669 36001 36229.577603268237 2 36001 36229.577603268 72230.577603268 2608654294.3112
vector 1633  BasicTopology.peer[0].bitTorrentApp.bitTorrentClient.contentManager_51  TotalBytesUploaded:vector  ETV
attr source ContentManager_TotalBytesUploaded
attr title "Total of Bytes Uploaded, vector"
attr unit B
1633	45475 11848 1007087 231253931 36002.074460615482 36212.61662556347 292 32768 9568256 1401749504 8.956842910679e+15
vector 1720  BasicTopology.peer[11].bitTorrentApp.bitTorrentClient.contentManager_51  TotalBytesDownloaded:vector  ETV
attr source ContentManager_TotalBytesDownloaded
attr title "Total of Bytes Downloaded, vector"
attr unit B
1720	164177 3882 1122454 139462400 36002.212453201543 36116.932981893325 96 32768 3145728 152567808 3.2162433099366e+14
vector 1719  BasicTopology.peer[11].bitTorrentApp.bitTorrentClient.contentManager_51  PiecesDownloaded:vector  ETV
attr source ContentManager_PieceDownloaded
attr title "Pieces Downloaded, vector"
1719	163758 419 1833726 139462400 36003.599140647652 36116.932981893325 12 0 11 66 506
vector 1721  BasicTopology.peer[11].bitTorrentApp.bitTorrentClient.contentManager_51  TotalBytesUploaded:vector  ETV
attr source ContentManager_TotalBytesUploaded
attr title "Total of Bytes Uploaded, vector"
attr unit B
1721	168059 14666 1868483 234724419 36003.675089976 36217.949064418761 358 32768 11730944 2105704448 1.6490933881143e+16
vector 1816  BasicTopology.peer[23].bitTorrentApp.bitTorrentClient.contentManager_51  TotalBytesDownloaded:vector  ETV
attr source ContentManager_TotalBytesDownloaded
attr title "Total of Bytes Downloaded, vector"
attr unit B
1816	265111 3926 1910202 168809796 36003.779010216213 36142.547071777999 96 32768 3145728 152567808 3.2162433099366e+14
vector 1672  BasicTopology.peer[5].bitTorrentApp.bitTorrentClient.contentManager_51  TotalBytesDownloaded:vector  ETV
attr source ContentManager_TotalBytesDownloaded
attr title "Total of Bytes Downloaded, vector"
attr unit B
1672	101304 3913 2437806 224099382 36004.291121179627 36202.767813335839 96 32768 3145728 152567808 3.2162433099366e+14
vector 1664  BasicTopology.peer[4].bitTorrentApp.bitTorrentClient.contentManager_51  TotalBytesDownloaded:vector  ETV
attr source ContentManager_TotalBytesDownloaded
attr title "Total of Bytes Downloaded, vector"
attr unit B
1664	94020 3935 3278471 208404418 36005.210133273411 36183.146470347589 96 32768 3145728 152567808 3.2162433099366e+14
vector 1712  BasicTopology.peer[10].bitTorrentApp.bitTorrentClient.contentManager_51  TotalBytesDownloaded:vector  ETV
attr source ContentManager_TotalBytesDownloaded
attr title "Total of Bytes Downloaded, vector"
attr unit B
1712	148051 3887 3320607 151392563 36005.482409047953 36127.002194762135 96 32768 3145728 152567808 3.2162433099366e+14
vector 1736  BasicTopology.peer[13].bitTorrentApp.bitTorrentClient.contentManager_51  TotalBytesDownloaded:vector  ETV
attr source ContentManager_TotalBytesDownloaded
attr title "Total of Bytes Downloaded, vector"
attr unit B
1736	188434 4404 3415918 221291221 36005.603422058309 36198.783108967031 107 32768 3506176 189333504 4.4462575190016e+14
vector 1735  BasicTopology.peer[13].bitTorrentApp.bitTorrentClient.contentManager_51  PiecesDownloaded:vector  ETV
attr source ContentManager_PieceDownloaded
attr title "Pieces Downloaded, vector"
1735	188005 429 4561621 218883029 36008.110718878934 36195.770085676107 12 0 11 66 506
vector 1737  BasicTopology.peer[13].bitTorrentApp.bitTorrentClient.contentManager_51  TotalBytesUploaded:vector  ETV
attr source ContentManager_TotalBytesUploaded
attr title "Total of Bytes Uploaded, vector"
attr unit B
1737	192838 4173 4877421 193887580 36008.638469375067 36167.200304689056 103 32768 3375104 175505408 3.9681632344474e+14
vector 1744  BasicTopology.peer[14].bitTorrentApp.bitTorrentClient.contentManager_51  TotalBytesDownloaded:vector  ETV
attr source ContentManager_TotalBytesDownloaded
attr title "Total of Bytes Downloaded, vector"
attr unit B
1744	197438 3929 5061471 177451630 36008.958855837446 36150.612228118549 96 32768 3145728 152567808 3.2162433099366e+14
vector 1936  BasicTopology.peer[38].bitTorrentApp.bitTorrentClient.contentManager_51  TotalBytesDownloaded:vector  ETV
attr source ContentManager_TotalBytesDownloaded
attr title "Total of Bytes Downloaded, vector"
attr unit B
1936	381346 3936 5363491 213618411 36009.835736211676 36188.999489887602 96 32768 3145728 152567808 3.2162433099366e+14
vector 1648  BasicTopology.peer[2].bitTorrentApp.bitTorrentClient.contentManager_51  TotalBytesDownloaded:vector  ETV
attr source ContentManager_TotalBytesDownloaded
attr title "Total of Bytes Downloaded, vector"
attr unit B
1648	73273 4231 5368989 144810004 36009.843469528015 36121.2904061187 104 32768 3407872 178913280 4.0842991501312e+14
vector 1815  BasicTopology.peer[23].bitTorrentApp.bitTorrentClient.contentManager_51  PiecesDownloaded:vector  ETV
attr source ContentManager_PieceDownloaded
attr title "Pieces Downloaded, vector"
1815	264686 425 5380991 168809796 36009.858748121385 36142.547071777999 12 0 11 66 506
vector 1817  BasicTopology.peer[23].bitTorrentApp.bitTorrentClient.contentManager_51  TotalBytesUploaded:vector  ETV
attr source ContentManager_TotalBytesUploaded
attr title "Total of Bytes Uploaded, vector"
attr unit B
1817	269037 4765 5427493 49586083 36009.916795516703 36048.424945333074 118 32768 3866624 230064128 5.9556056635802e+14
vector 1856  BasicTopology.peer[28].bitTorrentApp.bitTorrentClient.contentManager_51  TotalBytesDownloaded:vector  ETV
attr source ContentManager_TotalBytesDownloaded
attr title "Total of Bytes Downloaded, vector"
attr unit B
1856	299275 3988 6031079 242551366 36010.651110396055 36236.196378081419 97 32768 3178496 155746304 3.3172716781568e+14
vector 1671  BasicTopology.peer[5].bitTorrentApp.bitTorrentClient.contentManager_51  PiecesDownloaded:vector  ETV
attr source ContentManager_PieceDownloaded
attr title "Pieces Downloaded, vector"
1671	100881 423 6032809 224099382 36010.653316908472 36202.767813335839 12 0 11 66 506
vector 1673  BasicTopology.peer[5].bitTorrentApp.bitTorrentClient.contentManager_51  TotalBytesUploaded:vector  ETV
attr source ContentManager_TotalBytesUploaded
attr title "Total of Bytes Uploaded, vector"
attr unit B
1673	105217 6869 6065693 132036930 36010.692393393872 36110.761291363456 169 32768 5537792 470712320 1.7429460470989e+15
vector 1711  BasicTopology.peer[10].bitTorrentApp.bitTorrentClient.contentManager_51  PiecesDownloaded:vector  ETV
attr source ContentManager_PieceDownloaded
attr title "Pieces Downloaded, vector"
1711	147628 423 6290791 151392563 36011.138494495329 36127.002194762135 12 0 11 66 506
vector 1713  BasicTopology.peer[10].bitTorrentApp.bitTorrentClient.contentManager_51  TotalBytesUploaded:vector  ETV
attr source ContentManager_TotalBytesUploaded
attr title "Total of Bytes Uploaded, vector"
attr unit B
1713	151938 11820 6309187 209560454 36011.160101510315 36184.525661544506 289 32768 9469952 1373143040 8.684064169001e+15
vector 1800  BasicTopology.peer[21].bitTorrentApp.bitTorrentClient.contentManager_51  TotalBytesDownloaded:vector  ETV
attr source ContentManager_TotalBytesDownloaded
attr title "Total of Bytes Downloaded, vector"
attr unit B
1800	247412 3944 6435428 188511910 36011.298694524985 36161.45009422841 96 32768 3145728 152567808 3.2162433099366e+14
vector 1696  BasicTopology.peer[8].bitTorrentApp.bitTorrentClient.contentManager_51  TotalBytesDownloaded:vector  ETV
attr source ContentManager_TotalBytesDownloaded
attr title "Total of Bytes Downloaded, vector"
attr unit B
1696	129917 3919 6949798 239243519 36012.217528067 36224.132823403534 96 32768 3145728 152567808 3.2162433099366e+14
vector 1960  BasicTopology.peer[41].bitTorrentApp.bitTorrentClient.contentManager_51  TotalBytesDownloaded:vector  ETV
attr source ContentManager_TotalBytesDownloaded
attr title "Total of Bytes Downloaded, vector"
attr unit B
1960	407473 4260 7066976 231664823 36012.375062346924 36213.131235000233 104 32768 3407872 178913280 4.0842991501312e+14
vector 1792  BasicTopology.peer[20].bitTorrentApp.bitTorrentClient.contentManager_51  TotalBytesDownloaded:vector  ETV
attr source ContentManager_TotalBytesDownloaded
attr title "Total of Bytes Downloaded, vector"
attr unit B
1792	233718 3894 7138188 188166106 36012.46343385597 36161.118303019863 96 32768 3145728 152567808 3.2162433099366e+14
vector 1688  BasicTopology.peer[7].bitTorrentApp.bitTorrentClient.contentManager_51  TotalBytesDownloaded:vector  ETV
attr source ContentManager_TotalBytesDownloaded
attr title "Total of Bytes Downloaded, vector"
attr unit B
1688	119473 4777 7289452 192394082 36012.627992264323 36165.477100219958 116 32768 3801088 222363648 5.659113333719e+14
vector 1928  BasicTopology.peer[37].bitTorrentApp.bitTorrentClient.contentManager_51  TotalBytesDownloaded:vector  ETV
attr source ContentManager_TotalBytesDownloaded
attr title "Total of Bytes Downloaded, vector"
attr unit B
1928	373719 3954 7381263 218631351 36012.730308457982 36195.336096352324 96 32768 3145728 152567808 3.2162433099366e+14
vector 1656  BasicTopology.peer[3].bitTorrentApp.bitTorrentClient.contentManager_51  TotalBytesDownloaded:vector  ETV
attr source ContentManager_TotalBytesDownloaded
attr title "Total of Bytes Downloaded, vector"
attr unit B
1656	82830 3902 7472206 160129622 36012.849705730215 36134.628020184677 96 32768 3145728 152567808 3.2162433099366e+14
vector 1704  BasicTopology.peer[9].bitTorrentApp.bitTorrentClient.contentManager_51  TotalBytesDownloaded:vector  ETV
attr source ContentManager_TotalBytesDownloaded
attr title "Total of Bytes Downloaded, vector"
attr unit B
1704	140366 4346 8084320 192340176 36013.558389314869 36165.42133403398 106 32768 3473408 185827328 4.3233248175718e+14
vector 1840  BasicTopology.peer[26].bitTorrentApp.bitTorrentClient.contentManager_51  TotalBytesDownloaded:vector  ETV
attr source ContentManager_TotalBytesDownloaded
attr title "Total of Bytes Downloaded, vector"
attr unit B
1840	286185 3960 8493340 229468161 36014.021574338857 36210.023557158927 96 32768 3145728 152567808 3.2162433099366e+14
vector 1791  BasicTopology.peer[20].bitTorrentApp.bitTorrentClient.contentManager_51  PiecesDownloaded:vector  ETV
attr source ContentManager_PieceDownloaded
attr title "Pieces Downloaded, vector"
1791	233297 421 8527558 188166106 36014.060582706968 36161.118303019863 12 0 11 66 506
vector 1793  BasicTopology.peer[20].bitTorrentApp.bitTorrentClient.contentManager_51  TotalBytesUploaded:vector  ETV
attr source ContentManager_TotalBytesUploaded
attr title "Total of Bytes Uploaded, vector"
attr unit B
1793	237612 9372 8556453 228524465 36014.088886042983 36208.819126931887 229 32768 7503872 862945280 4.3263796130611e+15
vector 1808  BasicTopology.peer[22].bitTorrentApp.bitTorrentClient.contentManager_51  TotalBytesDownloaded:vector  ETV
attr source ContentManager_TotalBytesDownloaded
attr title "Total of Bytes Downloaded, vector"
attr unit B
1808	255742 4355 9200459 221956629 36014.900374345052 36199.943176119821 106 32768 3473408 185827328 4.3233248175718e+14
vector 1640  BasicTopology.peer[1].bitTorrentApp.bitTorrentClient.contentManager_51  TotalBytesDownloaded:vector  ETV
attr source ContentManager_TotalBytesDownloaded
attr title "Total of Bytes Downloaded, vector"
attr unit B
1640	57746 3902 9488823 116099315 36015.407179306969 36098.433759890368 96 32768 3145728 152567808 3.2162433099366e+14
vector 1920  BasicTopology.peer[36].bitTorrentApp.bitTorrentClient.contentManager_51  TotalBytesDownloaded:vector  ETV
attr source ContentManager_TotalBytesDownloaded
attr title "Total of Bytes Downloaded, vector"
attr unit B
1920	366612 4382 9552586 214404264 36015.49420185003 36189.777445618265 106 32768 3473408 185827328 4.3233248175718e+14
vector 1655  BasicTopology.peer[3].bitTorrentApp.bitTorrentClient.contentManager_51  PiecesDownloaded:vector  ETV
attr source ContentManager_PieceDownloaded
attr title "Pieces Downloaded, vector"
1655	82405 425 9781338 160129622 36015.781648027571 36134.628020184677 12 0 11 66 506
vector 1657  BasicTopology.peer[3].bitTorrentApp.bitTorrentClient.contentManager_51  TotalBytesUploaded:vector  ETV
attr source ContentManager_TotalBytesUploaded
attr title "Total of Bytes Uploaded, vector"
attr unit B
1657	86732 6858 9823010 190529714 36015.83704449544 36163.556343106905 168 32768 5505024 465174528 1.7122789068636e+15
vector 2000  BasicTopology.peer[46].bitTorrentApp.bitTorrentClient.contentManager_51  TotalBytesDownloaded:vector  ETV
attr source ContentManager_TotalBytesDownloaded
attr title "Total of Bytes Downloaded, vector"
attr unit B
2000	455564 5785 9990651 215929238 36016.016016596264 36191.718329914711 140 32768 4587520 323420160 9.9266357886976e+14
vector 1687  BasicTopology.peer[7].bitTorrentApp.bitTorrentClient.contentManager_51  PiecesDownloaded:vector  ETV
attr source ContentManager_PieceDownloaded
attr title "Pieces Downloaded, vector"
1687	119047 426 10118244 192394082 36016.15568532099 36165.477100219958 12 0 11 66 506
vector 1689  BasicTopology.peer[7].bitTorrentApp.bitTorrentClient.contentManager_51  TotalBytesUploaded:vector  ETV
attr source ContentManager_TotalBytesUploaded
attr title "Total of Bytes Uploaded, vector"
attr unit B
1689	124250 5242 10166576 126273914 36016.206005699152 36106.25542799326 128 32768 4194304 270532608 7.5941893740954e+14
vector 1695  BasicTopology.peer[8].bitTorrentApp.bitTorrentClient.contentManager_51  PiecesDownloaded:vector  ETV
attr source ContentManager_PieceDownloaded
attr title "Pieces Downloaded, vector"
1695	129492 425 10265629 239243519 36016.304055547734 36224.132823403534 12 0 11 66 506
vector 1663  BasicTopology.peer[4].bitTorrentApp.bitTorrentClient.contentManager_51  PiecesDownloaded:vector  ETV
attr source ContentManager_PieceDownloaded
attr title "Pieces Downloaded, vector"
1663	93590 430 10296007 208404418 36016.332031247895 36183.146470347589 12 0 11 66 506
vector 1665  BasicTopology.peer[4].bitTorrentApp.bitTorrentClient.contentManager_51  TotalBytesUploaded:vector  ETV
attr source ContentManager_TotalBytesUploaded
attr title "Total of Bytes Uploaded, vector"
attr unit B
1665	97955 2926 10343271 132239979 36016.386549456837 36110.91870614459 72 32768 2359296 86114304 1.3638668648448e+14
vector 1703  BasicTopology.peer[9].bitTorrentApp.bitTorrentClient.contentManager_51  PiecesDownloaded:vector  ETV
attr source ContentManager_PieceDownloaded
attr title "Pieces Downloaded, vector"
1703	139939 427 10557503 183177391 36016.558909083166 36156.022316960661 12 0 11 66 506