file 468304 1593887682                                          
version 2
run Test-36-20200525-21:18:58-11269
attr configname Test
attr datetime 20200525-21:18:58
attr experiment "\"Simulation Test\""
attr inifile BasicConfig.ini
attr iterationvars ""
attr iterationvars2 $repetition=36
attr measurement "\"Peers: $peers, Rate: $rate\""
attr network BasicTopology
attr processid 11269
attr repetition 36
attr replication #36
attr resultdir results
attr runnumber 36
attr seedset 36
vector 3  BasicTopology.peer[1].bitTorrentApp.bitTorrentClient  DownloadComplete_Test:vector  ETV
attr source BitTorrentClient_DownloadComplete_Test
attr title "Descargas completas (prueba), vector"
3	41555 63 135 40422847 36001 36044.79506309611 2 36001 36044.795063096 72045.795063096 2595299252.1406
vector 5  BasicTopology.peer[2].bitTorrentApp.bitTorrentClient  DownloadComplete_Test:vector  ETV
attr source BitTorrentClient_DownloadComplete_Test
attr title "Descargas completas (prueba), vector"
5	41618 65 136 205871599 36001 36192.858415041525 2 36001 36192.858415042 72193.858415042 2605995001.2513
vector 7  BasicTopology.peer[3].bitTorrentApp.bitTorrentClient  DownloadComplete_Test:vector  ETV
attr source BitTorrentClient_DownloadComplete_Test
attr title "Descargas completas (prueba), vector"
7	41683 65 137 178805665 36001 36162.586409641998 2 36001 36162.586409642 72163.586409642 2603804656.8348
vector 9  BasicTopology.peer[4].bitTorrentApp.bitTorrentClient  DownloadComplete_Test:vector  ETV
attr source BitTorrentClient_DownloadComplete_Test
attr title "Descargas completas (prueba), vector"
9	41748 65 138 209845658 36001 36198.113683198644 2 36001 36198.113683199 72199.113683199 2606375435.2218
vector 11  BasicTopology.peer[5].bitTorrentApp.bitTorrentClient  DownloadComplete_Test:vector  ETV
attr source BitTorrentClient_DownloadComplete_Test
attr title "Descargas completas (prueba), vector"
11	41813 67 139 226405112 36001 36222.485501732814 2 36001 36222.485501733 72223.485501733 2608140456.9233
vector 13  BasicTopology.peer[6].bitTorrentApp.bitTorrentClient  DownloadComplete_Test:vector  ETV
attr source BitTorrentClient_DownloadComplete_Test
attr title "Descargas completas (prueba), vector"
13	41880 67 140 221948745 36001 36215.332009868119 2 36001 36215.332009868 72216.332009868 2607622273.585
vector 15  BasicTopology.peer[7].bitTorrentApp.bitTorrentClient  DownloadComplete_Test:vector  ETV
attr source BitTorrentClient_DownloadComplete_Test
attr title "Descargas completas (prueba), vector"
15	41947 67 141 207474417 36001 36195.031875311076 2 36001 36195.031875311 72196.031875311 2606152333.4548
vector 17  BasicTopology.peer[8].bitTorrentApp.bitTorrentClient  DownloadComplete_Test:vector  ETV
attr source BitTorrentClient_DownloadComplete_Test
attr title "Descargas completas (prueba), vector"
17	42014 67 142 229987581 36001 36230.292170106447 2 36001 36230.292170106 72231.292170106 2608706071.7312
vector 19  BasicTopology.peer[9].bitTorrentApp.bitTorrentClient  DownloadComplete_Test:vector  ETV
attr source BitTorrentClient_DownloadComplete_Test
attr title "Descargas completas (prueba), vector"
19	42081 65 143 230142574 36001 36230.9532773289 2 36001 36230.953277329 72231.953277329 2608753976.384
vector 21  BasicTopology.peer[10].bitTorrentApp.bitTorrentClient  DownloadComplete_Test:vector  ETV
attr source BitTorrentClient_DownloadComplete_Test
attr title "Descargas completas (prueba), vector"
21	42146 65 144 234520299 36001 36243.99880627998 2 36001 36243.99880628 72244.99880628 2609699450.4696
vector 23  BasicTopology.peer[11].bitTorrentApp.bitTorrentClient  DownloadComplete_Test:vector  ETV
attr source BitTorrentClient_DownloadComplete_Test
attr title "Descargas completas (prueba), vector"
23	42211 67 145 131724318 36001 36117.709010475485 2 36001 36117.709010475 72118.709010475 2600560905.1653
vector 25  BasicTopology.peer[12].bitTorrentApp.bitTorrentClient  DownloadComplete_Test:vector  ETV
attr source BitTorrentClient_DownloadComplete_Test
attr title "Descargas completas (prueba), vector"
25	42278 67 146 115591484 36001 36103.847629445817 2 36001 36103.847629446 72104.847629446 2599559814.6503
vector 27  BasicTopology.peer[13].bitTorrentApp.bitTorrentClient  DownloadComplete_Test:vector  ETV
attr source BitTorrentClient_DownloadComplete_Test
attr title "Descargas completas (prueba), vector"
27	42345 66 147 227184852 36001 36224.01710471701 2 36001 36224.017104717 72225.017104717 2608251416.2028
vector 29  BasicTopology.peer[14].bitTorrentApp.bitTorrentClient  DownloadComplete_Test:vector  ETV
attr source BitTorrentClient_DownloadComplete_Test
attr title "Descargas completas (prueba), vector"
29	42411 67 148 215034042 36001 36205.142206289346 2 36001 36205.142206289 72206.142206289 2606884323.1776
vector 31  BasicTopology.peer[15].bitTorrentApp.bitTorrentClient  DownloadComplete_Test:vector  ETV
attr source BitTorrentClient_DownloadComplete_Test
attr title "Descargas completas (prueba), vector"
31	42478 67 149 234428324 36001 36243.598241855816 2 36001 36243.598241856 72244.598241856 2609670414.5171
vector 33  BasicTopology.peer[16].bitTorrentApp.bitTorrentClient  DownloadComplete_Test:vector  ETV
attr source BitTorrentClient_DownloadComplete_Test
attr title "Descargas completas (prueba), vector"
33	42545 67 150 204779289 36001 36191.415986637094 2 36001 36191.415986637 72192.415986637 2605890592.1178
vector 35  BasicTopology.peer[17].bitTorrentApp.bitTorrentClient  DownloadComplete_Test:vector  ETV
attr source BitTorrentClient_DownloadComplete_Test
attr title "Descargas completas (prueba), vector"
35	42612 67 151 219685608 36001 36211.839256286866 2 36001 36211.839256287 72212.839256287 2607369303.3232
vector 37  BasicTopology.peer[18].bitTorrentApp.bitTorrentClient  DownloadComplete_Test:vector  ETV
attr source BitTorrentClient_DownloadComplete_Test
attr title "Descargas completas (prueba), vector"
37	42679 67 152 232711896 36001 36239.826116912108 2 36001 36239.826116912 72240.826116912 2609396997.984
vector 39  BasicTopology.peer[19].bitTorrentApp.bitTorrentClient  DownloadComplete_Test:vector  ETV
attr source BitTorrentClient_DownloadComplete_Test
attr title "Descargas completas (prueba), vector"
39	42746 67 153 218041693 36001 36209.390661465068 2 36001 36209.390661465 72210.390661465 2607191973.0746
vector 41  BasicTopology.peer[20].bitTorrentApp.bitTorrentClient  DownloadComplete_Test:vector  ETV
attr source BitTorrentClient_DownloadComplete_Test
attr title "Descargas completas (prueba), vector"
41	42813 67 154 188631350 36001 36172.820499240645 2 36001 36172.820499241 72173.820499241 2604544943.8703
vector 43  BasicTopology.peer[21].bitTorrentApp.bitTorrentClient  DownloadComplete_Test:vector  ETV
attr source BitTorrentClient_DownloadComplete_Test
attr title "Descargas completas (prueba), vector"
43	42880 67 155 226768427 36001 36223.341580921232 2 36001 36223.341580921 72224.341580921 2608202476.2881
vector 45  BasicTopology.peer[22].bitTorrentApp.bitTorrentClient  DownloadComplete_Test:vector  ETV
attr source BitTorrentClient_DownloadComplete_Test
attr title "Descargas completas (prueba), vector"
45	42947 65 156 210532851 36001 36199.05110010981 2 36001 36199.05110011 72200.05110011 2606443301.5484
vector 47  BasicTopology.peer[23].bitTorrentApp.bitTorrentClient  DownloadComplete_Test:vector  ETV
attr source BitTorrentClient_DownloadComplete_Test
attr title "Descargas completas (prueba), vector"
47	43012 66 157 218171998 36001 36209.516965950482 2 36001 36209.51696595 72210.51696595 2607201119.9074
vector 49  BasicTopology.peer[24].bitTorrentApp.bitTorrentClient  DownloadComplete_Test:vector  ETV
attr source BitTorrentClient_DownloadComplete_Test
attr title "Descargas completas (prueba), vector"
49	43078 67 158 237583553 36001 36302.715836918144 2 36001 36302.715836918 72303.715836918 2613959178.136
vector 51  BasicTopology.peer[25].bitTorrentApp.bitTorrentClient  DownloadComplete_Test:vector  ETV
attr source BitTorrentClient_DownloadComplete_Test
attr title "Descargas completas (prueba), vector"
51	43145 67 159 202106379 36001 36188.098350682854 2 36001 36188.098350683 72189.098350683 2605650463.2387
vector 53  BasicTopology.peer[26].bitTorrentApp.bitTorrentClient  DownloadComplete_Test:vector  ETV
attr source BitTorrentClient_DownloadComplete_Test
attr title "Descargas completas (prueba), vector"
53	43212 67 160 224161558 36001 36218.653400758136 2 36001 36218.653400758 72219.653400758 2607862855.1642
vector 55  BasicTopology.peer[27].bitTorrentApp.bitTorrentClient  DownloadComplete_Test:vector  ETV
attr source BitTorrentClient_DownloadComplete_Test
attr title "Descargas completas (prueba), vector"
55	43279 67 161 205748368 36001 36192.706367731203 2 36001 36192.706367731 72193.706367731 2605983995.2208
vector 57  BasicTopology.peer[28].bitTorrentApp.bitTorrentClient  DownloadComplete_Test:vector  ETV
attr source BitTorrentClient_DownloadComplete_Test
attr title "Descargas completas (prueba), vector"
57	43346 67 162 213698661 36001 36202.972966673305 2 36001 36202.972966673 72203.972966673 2606727252.6257
vector 59  BasicTopology.peer[29].bitTorrentApp.bitTorrentClient  DownloadComplete_Test:vector  ETV
attr source BitTorrentClient_DownloadComplete_Test
attr title "Descargas completas (prueba), vector"
59	43413 66 163 232469802 36001 36238.503268729542 2 36001 36238.50326873 72239.50326873 2609301120.1578
vector 61  BasicTopology.peer[30].bitTorrentApp.bitTorrentClient  DownloadComplete_Test:vector  ETV
attr source BitTorrentClient_DownloadComplete_Test
attr title "Descargas completas (prueba), vector"
61	43479 66 164 192209194 36001 36176.450002690155 2 36001 36176.45000269 72177.45000269 2604807535.7971
vector 63  BasicTopology.peer[31].bitTorrentApp.bitTorrentClient  DownloadComplete_Test:vector  ETV
attr source BitTorrentClient_DownloadComplete_Test
attr title "Descargas completas (prueba), vector"
63	43545 67 165 221071024 36001 36213.830003606293 2 36001 36213.830003606 72214.830003606 2607513484.5301
vector 65  BasicTopology.peer[32].bitTorrentApp.bitTorrentClient  DownloadComplete_Test:vector  ETV
attr source BitTorrentClient_DownloadComplete_Test
attr title "Descargas completas (prueba), vector"
65	43612 67 166 220475152 36001 36212.983142682111 2 36001 36212.983142682 72213.983142682 2607452149.0922
vector 67  BasicTopology.peer[33].bitTorrentApp.bitTorrentClient  DownloadComplete_Test:vector  ETV
attr source BitTorrentClient_DownloadComplete_Test
attr title "Descargas completas (prueba), vector"
67	43679 67 167 229909942 36001 36230.062515538963 2 36001 36230.062515539 72231.062515539 2608689430.8799
vector 69  BasicTopology.peer[34].bitTorrentApp.bitTorrentClient  DownloadComplete_Test:vector  ETV
attr source BitTorrentClient_DownloadComplete_Test
attr title "Descargas completas (prueba), vector"
69	43746 67 168 202149144 36001 36188.145586876321 2 36001 36188.145586876 72189.145586876 2605653882.0169
vector 71  BasicTopology.peer[35].bitTorrentApp.bitTorrentClient  DownloadComplete_Test:vector  ETV
attr source BitTorrentClient_DownloadComplete_Test
attr title "Descargas completas (prueba), vector"
71	43813 67 169 216560884 36001 36207.194988896761 2 36001 36207.194988897 72208.194988897 2607032969.964
vector 73  BasicTopology.peer[36].bitTorrentApp.bitTorrentClient  DownloadComplete_Test:vector  ETV
attr source BitTorrentClient_DownloadComplete_Test
attr title "Descargas completas (prueba), vector"
73	43880 67 170 207985239 36001 36195.680277404869 2 36001 36195.680277405 72196.680277405 2606199271.7441
vector 75  BasicTopology.peer[37].bitTorrentApp.bitTorrentClient  DownloadComplete_Test:vector  ETV
attr source BitTorrentClient_DownloadComplete_Test
attr title "Descargas completas (prueba), vector"
75	43947 66 171 198253503 36001 36183.47754103457 2 36001 36183.477541035 72184.477541035 2605316047.9626
vector 77  BasicTopology.peer[38].bitTorrentApp.bitTorrentClient  DownloadComplete_Test:vector  ETV
attr source BitTorrentClient_DownloadComplete_Test
attr title "Descargas completas (prueba), vector"
77	44013 67 172 206500316 36001 36193.855753712124 2 36001 36193.855753712 72194.855753712 2606067195.3205
vector 79  BasicTopology.peer[39].bitTorrentApp.bitTorrentClient  DownloadComplete_Test:vector  ETV
attr source BitTorrentClient_DownloadComplete_Test
attr title "Descargas completas (prueba), vector"
79	44080 67 173 200196261 36001 36185.722304207399 2 36001 36185.722304207 72186.722304207 2605478499.6772
vector 81  BasicTopology.peer[40].bitTorrentApp.bitTorrentClient  DownloadComplete_Test:vector  ETV
attr source BitTorrentClient_DownloadComplete_Test
attr title "Descargas completas (prueba), vector"
81	44147 67 174 182320103 36001 36166.137804945005 2 36001 36166.137804945 72167.137804945 2604061524.7263
vector 83  BasicTopology.peer[41].bitTorrentApp.bitTorrentClient  DownloadComplete_Test:vector  ETV
attr source BitTorrentClient_DownloadComplete_Test
attr title "Descargas completas (prueba), vector"
83	44214 67 175 171524634 36001 36154.631263578333 2 36001 36154.631263578 72155.631263578 2603229362.8053
vector 85  BasicTopology.peer[42].bitTorrentApp.bitTorrentClient  DownloadComplete_Test:vector  ETV
attr source BitTorrentClient_DownloadComplete_Test
attr title "Descargas completas (prueba), vector"
85	44281 67 176 229028807 36001 36227.737543679156 2 36001 36227.737543679 72228.737543679 2608520968.5337
vector 87  BasicTopology.peer[43].bitTorrentApp.bitTorrentClient  DownloadComplete_Test:vector  ETV
attr source BitTorrentClient_DownloadComplete_Test
attr title "Descargas completas (prueba), vector"
87	44348 67 177 215994140 36001 36206.615225956037 2 36001 36206.615225956 72207.615225956 2606990987.1204
vector 89  BasicTopology.peer[44].bitTorrentApp.bitTorrentClient  DownloadComplete_Test:vector  ETV
attr source BitTorrentClient_DownloadComplete_Test
attr title "Descargas completas (prueba), vector"
89	44415 67 178 204135322 36001 36190.758435719486 2 36001 36190.758435719 72191.758435719 2605842997.1526
vector 91  BasicTopology.peer[45].bitTorrentApp.bitTorrentClient  DownloadComplete_Test:vector  ETV
attr source BitTorrentClient_DownloadComplete_Test
attr title "Descargas completas (prueba), vector"
91	44482 67 179 211585555 36001 36200.392517106087 2 36001 36200.392517106 72201.392517106 2606540419.3925
vector 93  BasicTopology.peer[46].bitTorrentApp.bitTorrentClient  DownloadComplete_Test:vector  ETV
attr source BitTorrentClient_DownloadComplete_Test
attr title "Descargas completas (prueba), vector"
93	44549 67 180 207218764 36001 36194.594543198284 2 36001 36194.594543198 72195.594543198 2606120675.1465
vector 95  BasicTopology.peer[47].bitTorrentApp.bitTorrentClient  DownloadComplete_Test:vector  ETV
attr source BitTorrentClient_DownloadComplete_Test
attr title "Descargas completas (prueba), vector"
95	44616 66 181 226207308 36001 36222.196501050222 2 36001 36222.19650105 72223.19650105 2608119520.3607
vector 97  BasicTopology.peer[48].bitTorrentApp.bitTorrentClient  DownloadComplete_Test:vector  ETV
attr source BitTorrentClient_DownloadComplete_Test
attr title "Descargas completas (prueba), vector"
97	44682 67 182 231523564 36001 36234.174955137278 2 36001 36234.174955137 72235.174955137 2608987435.6795
vector 99  BasicTopology.peer[49].bitTorrentApp.bitTorrentClient  DownloadComplete_Test:vector  ETV
attr source BitTorrentClient_DownloadComplete_Test
attr title "Descargas completas (prueba), vector"
99	44749 66 183 198668822 36001 36184.01065975118 2 36001 36184.010659751 72185.010659751 2605354628.425
vector 1633  BasicTopology.peer[0].bitTorrentApp.bitTorrentClient.contentManager_51  TotalBytesUploaded:vector  ETV
attr source ContentManager_TotalBytesUploaded
attr title "Total of Bytes Uploaded, vector"
attr unit B
1633	44815 9406 270044 210481777 36001.088382315456 36198.997033155013 233 32768 7634944 893288448 4.5565619428393e+15
vector 1640  BasicTopology.peer[1].bitTorrentApp.bitTorrentClient.contentManager_51  TotalBytesDownloaded:vector  ETV
attr source ContentManager_TotalBytesDownloaded
attr title "Total of Bytes Downloaded, vector"
attr unit B
1640	54634 3852 1186837 40422847 36002.480721641524 36044.79506309611 96 32768 3145728 152567808 3.2162433099366e+14
vector 1728  BasicTopology.peer[12].bitTorrentApp.bitTorrentClient.contentManager_51  TotalBytesDownloaded:vector  ETV
attr source ContentManager_TotalBytesDownloaded
attr title "Total of Bytes Downloaded, vector"
attr unit B
1728	176713 3891 1766838 115591484 36003.177379719799 36103.847629445817 96 32768 3145728 152567808 3.2162433099366e+14
vector 1720  BasicTopology.peer[11].bitTorrentApp.bitTorrentClient.contentManager_51  TotalBytesDownloaded:vector  ETV
attr source ContentManager_TotalBytesDownloaded
attr title "Total of Bytes Downloaded, vector"
attr unit B
1720	163899 3891 1926204 131724318 36003.723216797263 36117.709010475485 96 32768 3145728 152567808 3.2162433099366e+14
vector 1992  BasicTopology.peer[45].bitTorrentApp.bitTorrentClient.contentManager_51  TotalBytesDownloaded:vector  ETV
attr source ContentManager_TotalBytesDownloaded
attr title "Total of Bytes Downloaded, vector"
attr unit B
1992	435934 3948 2465841 211585555 36004.232045204972 36200.392517106087 96 32768 3145728 152567808 3.2162433099366e+14
vector 1639  BasicTopology.peer[1].bitTorrentApp.bitTorrentClient.contentManager_51  PiecesDownloaded:vector  ETV
attr source ContentManager_PieceDownloaded
attr title "Pieces Downloaded, vector"
1639	54221 413 3325225 40422847 36005.723966728164 36044.79506309611 12 0 11 66 506
vector 1641  BasicTopology.peer[1].bitTorrentApp.bitTorrentClient.contentManager_51  TotalBytesUploaded:vector  ETV
attr source ContentManager_TotalBytesUploaded
attr title "Total of Bytes Uploaded, vector"
attr unit B
1641	58486 14820 3333434 197584048 36005.736188545427 36182.673301311809 362 32768 11862016 2152955904 1.7049114273382e+16
vector 1727  BasicTopology.peer[12].bitTorrentApp.bitTorrentClient.contentManager_51  PiecesDownloaded:vector  ETV
attr source ContentManager_PieceDownloaded
attr title "Pieces Downloaded, vector"
1727	176292 421 3461822 115591484 36006.672638109889 36103.847629445817 12 0 11 66 506
vector 1729  BasicTopology.peer[12].bitTorrentApp.bitTorrentClient.contentManager_51  TotalBytesUploaded:vector  ETV
attr source ContentManager_TotalBytesUploaded
attr title "Total of Bytes Uploaded, vector"
attr unit B
1729	180604 10362 3480620 201216373 36006.700926501811 36187.186699726817 255 32768 8355840 1069547520 5.9696609440563e+15
vector 1672  BasicTopology.peer[5].bitTorrentApp.bitTorrentClient.contentManager_51  TotalBytesDownloaded:vector  ETV
attr source ContentManager_TotalBytesDownloaded
attr title "Total of Bytes Downloaded, vector"
attr unit B
1672	110323 3938 3865040 226405112 36007.179588230095 36222.485501732814 96 32768 3145728 152567808 3.2162433099366e+14
vector 1656  BasicTopology.peer[3].bitTorrentApp.bitTorrentClient.contentManager_51  TotalBytesDownloaded:vector  ETV
attr source ContentManager_TotalBytesDownloaded
attr title "Total of Bytes Downloaded, vector"
attr unit B
1656	82381 3902 3878237 178805665 36007.216572475059 36162.586409641998 96 32768 3145728 152567808 3.2162433099366e+14
vector 1800  BasicTopology.peer[21].bitTorrentApp.bitTorrentClient.contentManager_51  TotalBytesDownloaded:vector  ETV
attr source ContentManager_TotalBytesDownloaded
attr title "Total of Bytes Downloaded, vector"
attr unit B
1800	240466 3902 4243385 226768427 36008.114963784297 36223.341580921232 96 32768 3145728 152567808 3.2162433099366e+14
vector 1696  BasicTopology.peer[8].bitTorrentApp.bitTorrentClient.contentManager_51  TotalBytesDownloaded:vector  ETV
attr source ContentManager_TotalBytesDownloaded
attr title "Total of Bytes Downloaded, vector"
attr unit B
1696	134243 3928 4262120 229987581 36008.143799940081 36230.292170106447 96 32768 3145728 152567808 3.2162433099366e+14
vector 1808  BasicTopology.peer[22].bitTorrentApp.bitTorrentClient.contentManager_51  TotalBytesDownloaded:vector  ETV
attr source ContentManager_TotalBytesDownloaded
attr title "Total of Bytes Downloaded, vector"
attr unit B
1808	253409 4254 4723940 210532851 36008.816997735528 36199.05110010981 104 32768 3407872 178913280 4.0842991501312e+14
vector 1655  BasicTopology.peer[3].bitTorrentApp.bitTorrentClient.contentManager_51  PiecesDownloaded:vector  ETV
attr source ContentManager_PieceDownloaded
attr title "Pieces Downloaded, vector"
1655	81958 423 5479511 178805665 36010.084295609835 36162.586409641998 12 0 11 66 506
vector 1657  BasicTopology.peer[3].bitTorrentApp.bitTorrentClient.contentManager_51  TotalBytesUploaded:vector  ETV
attr source ContentManager_TotalBytesUploaded
attr title "Total of Bytes Uploaded, vector"
attr unit B
1657	86283 11541 5549543 211914571 36010.122746295598 36200.728031875686 283 32768 9273344 1316814848 8.1552345095209e+15
vector 1888  BasicTopology.peer[32].bitTorrentApp.bitTorrentClient.contentManager_51  TotalBytesDownloaded:vector  ETV
attr source ContentManager_TotalBytesDownloaded
attr title "Total of Bytes Downloaded, vector"
attr unit B
1888	331336 4026 5736829 220475152 36010.376804220564 36212.983142682111 98 32768 3211264 158957568 3.4203938429338e+14
vector 1799  BasicTopology.peer[21].bitTorrentApp.bitTorrentClient.contentManager_51  PiecesDownloaded:vector  ETV
attr source ContentManager_PieceDownloaded
attr title "Pieces Downloaded, vector"
1799	240045 421 5870376 226768427 36010.558505684042 36223.341580921232 12 0 11 66 506
vector 1801  BasicTopology.peer[21].bitTorrentApp.bitTorrentClient.contentManager_51  TotalBytesUploaded:vector  ETV
attr source ContentManager_TotalBytesUploaded
attr title "Total of Bytes Uploaded, vector"
attr unit B
1801	244368 8613 5901570 222198687 36010.595414466154 36215.69724535585 211 32768 6914048 732889088 3.3861586586173e+15
vector 1752  BasicTopology.peer[15].bitTorrentApp.bitTorrentClient.contentManager_51  TotalBytesDownloaded:vector  ETV
attr source ContentManager_TotalBytesDownloaded
attr title "Total of Bytes Downloaded, vector"
attr unit B
1752	201226 3930 5987849 234428324 36010.688184723962 36243.598241855816 96 32768 3145728 152567808 3.2162433099366e+14
vector 1904  BasicTopology.peer[34].bitTorrentApp.bitTorrentClient.contentManager_51  TotalBytesDownloaded:vector  ETV
attr source ContentManager_TotalBytesDownloaded
attr title "Total of Bytes Downloaded, vector"
attr unit B
1904	351366 3942 6034131 202149144 36010.769389568601 36188.145586876321 96 32768 3145728 152567808 3.2162433099366e+14
vector 1920  BasicTopology.peer[36].bitTorrentApp.bitTorrentClient.contentManager_51  TotalBytesDownloaded:vector  ETV
attr source ContentManager_TotalBytesDownloaded
attr title "Total of Bytes Downloaded, vector"
attr unit B
1920	366507 4285 6082021 207985239 36010.86096817113 36195.680277404869 104 32768 3407872 178913280 4.0842991501312e+14
vector 1695  BasicTopology.peer[8].bitTorrentApp.bitTorrentClient.contentManager_51  PiecesDownloaded:vector  ETV
attr source ContentManager_PieceDownloaded
attr title "Pieces Downloaded, vector"
1695	133815 428 6268478 229987581 36011.208787508955 36230.292170106447 12 0 11 66 506
vector 1697  BasicTopology.peer[8].bitTorrentApp.bitTorrentClient.contentManager_51  TotalBytesUploaded:vector  ETV
attr source ContentManager_TotalBytesUploaded
attr title "Total of Bytes Uploaded, vector"
attr unit B
1697	138171 7809 6294878 201627739 36011.242305418173 36187.568213781336 192 32768 6291456 607125504 2.5531003594342e+15
vector 1744  BasicTopology.peer[14].bitTorrentApp.bitTorrentClient.contentManager_51  TotalBytesDownloaded:vector  ETV
attr source ContentManager_TotalBytesDownloaded
attr title "Total of Bytes Downloaded, vector"
attr unit B
1744	196381 4416 6489061 217489852 36011.471510598981 36208.49995773476 107 32768 3506176 189333504 4.4462575190016e+14
vector 1712  BasicTopology.peer[10].bitTorrentApp.bitTorrentClient.contentManager_51  TotalBytesDownloaded:vector  ETV
attr source ContentManager_TotalBytesDownloaded
attr title "Total of Bytes Downloaded, vector"
attr unit B
1712	156552 3955 6644605 234520299 36011.733513822355 36243.99880627998 96 32768 3145728 152567808 3.2162433099366e+14
vector 1704  BasicTopology.peer[9].bitTorrentApp.bitTorrentClient.contentManager_51  TotalBytesDownloaded:vector  ETV
attr source ContentManager_TotalBytesDownloaded
attr title "Total of Bytes Downloaded, vector"
attr unit B
1704	146402 3932 7062705 230142574 36012.487607669449 36230.9532773289 96 32768 3145728 152567808 3.2162433099366e+14
vector 1671  BasicTopology.peer[5].bitTorrentApp.bitTorrentClient.contentManager_51  PiecesDownloaded:vector  ETV
attr source ContentManager_PieceDownloaded
attr title "Pieces Downloaded, vector"
1671	109896 427 7139758 226405112 36012.571544107386 36222.485501732814 12 0 11 66 506
vector 1673  BasicTopology.peer[5].bitTorrentApp.bitTorrentClient.contentManager_51  TotalBytesUploaded:vector  ETV
attr source ContentManager_TotalBytesUploaded
attr title "Total of Bytes Uploaded, vector"
attr unit B
1673	114261 5729 7191759 226435007 36012.62825498187 36222.597977404493 142 32768 4653056 332693504 1.0356615702118e+15
vector 1760  BasicTopology.peer[16].bitTorrentApp.bitTorrentClient.contentManager_51  TotalBytesDownloaded:vector  ETV
attr source ContentManager_TotalBytesDownloaded
attr title "Total of Bytes Downloaded, vector"
attr unit B
1760	205582 4594 7294564 228002794 36012.72816033047 36225.738417076763 112 32768 3670016 207355904 5.095978696704e+14
vector 1688  BasicTopology.peer[7].bitTorrentApp.bitTorrentClient.contentManager_51  TotalBytesDownloaded:vector  ETV
attr source ContentManager_TotalBytesDownloaded
attr title "Total of Bytes Downloaded, vector"
attr unit B
1688	128339 3937 7744772 207474417 36013.330497478697 36195.031875311076 96 32768 3145728 152567808 3.2162433099366e+14
vector 1848  BasicTopology.peer[27].bitTorrentApp.bitTorrentClient.contentManager_51  TotalBytesDownloaded:vector  ETV
attr source ContentManager_TotalBytesDownloaded
attr title "Total of Bytes Downloaded, vector"
attr unit B
1848	288410 4277 7757446 205748368 36013.35301722468 36192.706367731203 104 32768 3407872 178913280 4.0842991501312e+14
vector 1648  BasicTopology.peer[2].bitTorrentApp.bitTorrentClient.contentManager_51  TotalBytesDownloaded:vector  ETV
attr source ContentManager_TotalBytesDownloaded
attr title "Total of Bytes Downloaded, vector"
attr unit B
1648	73731 3935 7884047 205871599 36013.563797591298 36192.858415041525 96 32768 3145728 152567808 3.2162433099366e+14
vector 1703  BasicTopology.peer[9].bitTorrentApp.bitTorrentClient.contentManager_51  PiecesDownloaded:vector  ETV
attr source ContentManager_PieceDownloaded
attr title "Pieces Downloaded, vector"
1703	145980 422 8088408 230142574 36013.836056065473 36230.9532773289 12 0 11 66 506
vector 1705  BasicTopology.peer[9].bitTorrentApp.bitTorrentClient.contentManager_51  TotalBytesUploaded:vector  ETV
attr source ContentManager_TotalBytesUploaded
attr title "Total of Bytes Uploaded, vector"
attr unit B
1705	150334 5788 8139554 231855911 36013.900702447764 36236.326989793885 142 32768 4653056 332693504 1.0356615702118e+15
vector 1680  BasicTopology.peer[6].bitTorrentApp.bitTorrentClient.contentManager_51  TotalBytesDownloaded:vector  ETV
attr source ContentManager_TotalBytesDownloaded
attr title "Total of Bytes Downloaded, vector"
attr unit B
1680	120417 3933 8320181 221948745 36014.278123270071 36215.332009868119 96 32768 3145728 152567808 3.2162433099366e+14
vector 1903  BasicTopology.peer[34].bitTorrentApp.bitTorrentClient.contentManager_51  PiecesDownloaded:vector  ETV
attr source ContentManager_PieceDownloaded
attr title "Pieces Downloaded, vector"
1903	350937 429 8500139 202149144 36014.60732576511 36188.145586876321 12 0 11 66 506
vector 1905  BasicTopology.peer[34].bitTorrentApp.bitTorrentClient.contentManager_51  TotalBytesUploaded:vector  ETV
attr source ContentManager_TotalBytesUploaded
attr title "Total of Bytes Uploaded, vector"
attr unit B
1905	355308 6183 8537248 107203949 36014.671172019407 36096.80585170002 152 32768 4980736 381026304 1.2693561094963e+15
vector 1807  BasicTopology.peer[22].bitTorrentApp.bitTorrentClient.contentManager_51  PiecesDownloaded:vector  ETV
attr source ContentManager_PieceDownloaded
attr title "Pieces Downloaded, vector"
1807	252981 428 8585371 210532851 36014.725768391001 36199.05110010981 12 0 11 66 506
vector 1809  BasicTopology.peer[22].bitTorrentApp.bitTorrentClient.contentManager_51  TotalBytesUploaded:vector  ETV
attr source ContentManager_TotalBytesUploaded
attr title "Total of Bytes Uploaded, vector"
attr unit B
1809	257663 5295 8649829 131337445 36014.803890114372 36117.368021512299 129 32768 4227072 274759680 7.7728707510272e+14
vector 1759  BasicTopology.peer[16].bitTorrentApp.bitTorrentClient.contentManager_51  PiecesDownloaded:vector  ETV
attr source ContentManager_PieceDownloaded
attr title "Pieces Downloaded, vector"
1759	205156 426 8938079 204779289 36015.158827614162 36191.415986637094 12 0 11 66 506
vector 1784  BasicTopology.peer[19].bitTorrentApp.bitTorrentClient.contentManager_51  TotalBytesDownloaded:vector  ETV
attr source ContentManager_TotalBytesDownloaded
attr title "Total of Bytes Downloaded, vector"
attr unit B
1784	226728 4393 8970556 221039793 36015.18999325521 36213.798441146273 107 32768 3506176 189333504 4.4462575190016e+14
vector 1761  BasicTopology.peer[16].bitTorrentApp.bitTorrentClient.contentManager_51  TotalBytesUploaded:vector  ETV
attr source ContentManager_TotalBytesUploaded
attr title "Total of Bytes Uploaded, vector"
attr unit B
1761	210176 5408 8982240 204824248 36015.202294324035 36191.550914555269 133 32768 4358144 291995648 8.515620920361e+14
vector 1679  BasicTopology.peer[6].bitTorrentApp.bitTorrentClient.contentManager_51  PiecesDownloaded:vector  ETV
attr source ContentManager_PieceDownloaded
attr title "Pieces Downloaded, vector"
1679	119990 427 9388941 221948745 36015.630650912134 36215.332009868119 12 0 11 66 506