file 471881 1593887682                                          
version 2
run Test-22-20200525-12:24:30-6841
attr configname Test
attr datetime 20200525-12:24:30
attr experiment "\"Simulation Test\""
attr inifile BasicConfig.ini
attr iterationvars ""
attr iterationvars2 $repetition=22
attr measurement "\"Peers: $peers, Rate: $rate\""
attr network BasicTopology
attr processid 6841
attr repetition 22
attr replication #22
attr resultdir results
attr runnumber 22
attr seedset 22
vector 3  BasicTopology.peer[1].bitTorrentApp.bitTorrentClient  DownloadComplete_Test:vector  ETV
attr source BitTorrentClient_DownloadComplete_Test
attr title "Descargas completas (prueba), vector"
3	41776 65 135 214275635 36001 36189.951806688196 2 36001 36189.951806688 72190.951806688 2605784612.7704
vector 5  BasicTopology.peer[2].bitTorrentApp.bitTorrentClient  DownloadComplete_Test:vector  ETV
attr source BitTorrentClient_DownloadComplete_Test
attr title "Descargas completas (prueba), vector"
5	41841 65 136 197398621 36001 36170.777326249283 2 36001 36170.777326249 72171.777326249 2604397133.3851
vector 7  BasicTopology.peer[3].bitTorrentApp.bitTorrentClient  DownloadComplete_Test:vector  ETV
attr source BitTorrentClient_DownloadComplete_Test
attr title "Descargas completas (prueba), vector"
7	41906 64 137 203242395 36001 36177.013245870098 2 36001 36177.01324587 72178.01324587 2604848288.3919
vector 9  BasicTopology.peer[4].bitTorrentApp.bitTorrentClient  DownloadComplete_Test:vector  ETV
attr source BitTorrentClient_DownloadComplete_Test
attr title "Descargas completas (prueba), vector"
9	41970 65 138 171481087 36001 36145.894010747092 2 36001 36145.894010747 72146.894010747 2602597654.8362
vector 11  BasicTopology.peer[5].bitTorrentApp.bitTorrentClient  DownloadComplete_Test:vector  ETV
attr source BitTorrentClient_DownloadComplete_Test
attr title "Descargas completas (prueba), vector"
11	42035 67 139 200957697 36001 36174.437477681607 2 36001 36174.437477682 72175.437477682 2604661927.8267
vector 13  BasicTopology.peer[6].bitTorrentApp.bitTorrentClient  DownloadComplete_Test:vector  ETV
attr source BitTorrentClient_DownloadComplete_Test
attr title "Descargas completas (prueba), vector"
13	42102 67 140 238708249 36001 36251.097070416734 2 36001 36251.097070417 72252.097070417 2610214039.8088
vector 15  BasicTopology.peer[7].bitTorrentApp.bitTorrentClient  DownloadComplete_Test:vector  ETV
attr source BitTorrentClient_DownloadComplete_Test
attr title "Descargas completas (prueba), vector"
15	42169 67 141 216702303 36001 36193.531234870967 2 36001 36193.531234871 72194.531234871 2606043704.2496
vector 17  BasicTopology.peer[8].bitTorrentApp.bitTorrentClient  DownloadComplete_Test:vector  ETV
attr source BitTorrentClient_DownloadComplete_Test
attr title "Descargas completas (prueba), vector"
17	42236 67 142 210398245 36001 36184.875960393722 2 36001 36184.875960394 72185.875960394 2605417249.2691
vector 19  BasicTopology.peer[9].bitTorrentApp.bitTorrentClient  DownloadComplete_Test:vector  ETV
attr source BitTorrentClient_DownloadComplete_Test
attr title "Descargas completas (prueba), vector"
19	42303 66 143 228159542 36001 36210.58590254466 2 36001 36210.585902545 72211.585902545 2607278532.4056
vector 21  BasicTopology.peer[10].bitTorrentApp.bitTorrentClient  DownloadComplete_Test:vector  ETV
attr source BitTorrentClient_DownloadComplete_Test
attr title "Descargas completas (prueba), vector"
21	42369 67 144 180991487 36001 36154.652727867959 2 36001 36154.652727868 72155.652727868 2603230914.8727
vector 23  BasicTopology.peer[11].bitTorrentApp.bitTorrentClient  DownloadComplete_Test:vector  ETV
attr source BitTorrentClient_DownloadComplete_Test
attr title "Descargas completas (prueba), vector"
23	42436 67 145 221370410 36001 36200.118774495856 2 36001 36200.118774496 72201.118774496 2606520600.2876
vector 25  BasicTopology.peer[12].bitTorrentApp.bitTorrentClient  DownloadComplete_Test:vector  ETV
attr source BitTorrentClient_DownloadComplete_Test
attr title "Descargas completas (prueba), vector"
25	42503 67 146 200426504 36001 36173.816571410999 2 36001 36173.816571411 72174.816571411 2604617006.3421
vector 27  BasicTopology.peer[13].bitTorrentApp.bitTorrentClient  DownloadComplete_Test:vector  ETV
attr source BitTorrentClient_DownloadComplete_Test
attr title "Descargas completas (prueba), vector"
27	42570 67 147 236989656 36001 36245.797058511926 2 36001 36245.797058512 72246.797058512 2609829805.4068
vector 29  BasicTopology.peer[14].bitTorrentApp.bitTorrentClient  DownloadComplete_Test:vector  ETV
attr source BitTorrentClient_DownloadComplete_Test
attr title "Descargas completas (prueba), vector"
29	42637 67 148 215727647 36001 36192.137446337755 2 36001 36192.137446338 72193.137446338 2605942813.9346
vector 31  BasicTopology.peer[15].bitTorrentApp.bitTorrentClient  DownloadComplete_Test:vector  ETV
attr source BitTorrentClient_DownloadComplete_Test
attr title "Descargas completas (prueba), vector"
31	42704 67 149 227352376 36001 36209.257151778821 2 36001 36209.257151779 72210.257151779 2607182304.4837
vector 33  BasicTopology.peer[16].bitTorrentApp.bitTorrentClient  DownloadComplete_Test:vector  ETV
attr source BitTorrentClient_DownloadComplete_Test
attr title "Descargas completas (prueba), vector"
33	42771 67 150 236538926 36001 36244.541501887284 2 36001 36244.541501887 72245.541501887 2609738789.682
vector 35  BasicTopology.peer[17].bitTorrentApp.bitTorrentClient  DownloadComplete_Test:vector  ETV
attr source BitTorrentClient_DownloadComplete_Test
attr title "Descargas completas (prueba), vector"
35	42838 67 151 215321697 36001 36191.524465146302 2 36001 36191.524465146 72192.524465146 2605898444.1113
vector 37  BasicTopology.peer[18].bitTorrentApp.bitTorrentClient  DownloadComplete_Test:vector  ETV
attr source BitTorrentClient_DownloadComplete_Test
attr title "Descargas completas (prueba), vector"
37	42905 65 152 192919729 36001 36166.210791099505 2 36001 36166.2107911 72167.2107911 2604066803.9863
vector 39  BasicTopology.peer[19].bitTorrentApp.bitTorrentClient  DownloadComplete_Test:vector  ETV
attr source BitTorrentClient_DownloadComplete_Test
attr title "Descargas completas (prueba), vector"
39	42970 67 153 183693381 36001 36157.150475831791 2 36001 36157.150475832 72158.150475832 2603411531.532
vector 41  BasicTopology.peer[20].bitTorrentApp.bitTorrentClient  DownloadComplete_Test:vector  ETV
attr source BitTorrentClient_DownloadComplete_Test
attr title "Descargas completas (prueba), vector"
41	43037 67 154 219051671 36001 36196.702578492109 2 36001 36196.702578492 72197.702578492 2606273278.5558
vector 43  BasicTopology.peer[21].bitTorrentApp.bitTorrentClient  DownloadComplete_Test:vector  ETV
attr source BitTorrentClient_DownloadComplete_Test
attr title "Descargas completas (prueba), vector"
43	43104 67 155 188063685 36001 36161.291879283808 2 36001 36161.291879284 72162.291879284 2603711031.3788
vector 45  BasicTopology.peer[22].bitTorrentApp.bitTorrentClient  DownloadComplete_Test:vector  ETV
attr source BitTorrentClient_DownloadComplete_Test
attr title "Descargas completas (prueba), vector"
45	43171 67 156 222848232 36001 36202.224461918116 2 36001 36202.224461918 72203.224461918 2606673056.9911
vector 47  BasicTopology.peer[23].bitTorrentApp.bitTorrentClient  DownloadComplete_Test:vector  ETV
attr source BitTorrentClient_DownloadComplete_Test
attr title "Descargas completas (prueba), vector"
47	43238 67 157 233032915 36001 36219.945106984213 2 36001 36219.945106984 72220.945106984 2607956424.5529
vector 49  BasicTopology.peer[24].bitTorrentApp.bitTorrentClient  DownloadComplete_Test:vector  ETV
attr source BitTorrentClient_DownloadComplete_Test
attr title "Descargas completas (prueba), vector"
49	43305 67 158 209949520 36001 36184.306122844734 2 36001 36184.306122845 72185.306122845 2605376010.5918
vector 51  BasicTopology.peer[25].bitTorrentApp.bitTorrentClient  DownloadComplete_Test:vector  ETV
attr source BitTorrentClient_DownloadComplete_Test
attr title "Descargas completas (prueba), vector"
51	43372 67 159 192736187 36001 36166.050525667924 2 36001 36166.050525668 72167.050525668 2604055211.6252
vector 53  BasicTopology.peer[26].bitTorrentApp.bitTorrentClient  DownloadComplete_Test:vector  ETV
attr source BitTorrentClient_DownloadComplete_Test
attr title "Descargas completas (prueba), vector"
53	43439 66 160 232967950 36001 36219.837749490262 2 36001 36219.83774949 72220.83774949 2607948647.5994
vector 55  BasicTopology.peer[27].bitTorrentApp.bitTorrentClient  DownloadComplete_Test:vector  ETV
attr source BitTorrentClient_DownloadComplete_Test
attr title "Descargas completas (prueba), vector"
55	43505 67 161 231406992 36001 36215.456463274126 2 36001 36215.456463274 72216.456463274 2607631287.8433
vector 57  BasicTopology.peer[28].bitTorrentApp.bitTorrentClient  DownloadComplete_Test:vector  ETV
attr source BitTorrentClient_DownloadComplete_Test
attr title "Descargas completas (prueba), vector"
57	43572 67 162 198811745 36001 36172.218228653102 2 36001 36172.218228653 72173.218228653 2604501372.5813
vector 59  BasicTopology.peer[29].bitTorrentApp.bitTorrentClient  DownloadComplete_Test:vector  ETV
attr source BitTorrentClient_DownloadComplete_Test
attr title "Descargas completas (prueba), vector"
59	43639 67 163 191016530 36001 36164.246940957821 2 36001 36164.246940958 72165.246940958 2603924757.8066
vector 61  BasicTopology.peer[30].bitTorrentApp.bitTorrentClient  DownloadComplete_Test:vector  ETV
attr source BitTorrentClient_DownloadComplete_Test
attr title "Descargas completas (prueba), vector"
61	43706 67 164 189904658 36001 36163.058727233523 2 36001 36163.058727234 72164.058727234 2603838817.5094
vector 63  BasicTopology.peer[31].bitTorrentApp.bitTorrentClient  DownloadComplete_Test:vector  ETV
attr source BitTorrentClient_DownloadComplete_Test
attr title "Descargas completas (prueba), vector"
63	43773 67 165 206125970 36001 36180.051555467363 2 36001 36180.051555467 72181.051555467 2605068131.5562
vector 65  BasicTopology.peer[32].bitTorrentApp.bitTorrentClient  DownloadComplete_Test:vector  ETV
attr source BitTorrentClient_DownloadComplete_Test
attr title "Descargas completas (prueba), vector"
65	43840 67 166 227783326 36001 36209.948125371948 2 36001 36209.948125372 72210.948125372 2607232344.2421
vector 67  BasicTopology.peer[33].bitTorrentApp.bitTorrentClient  DownloadComplete_Test:vector  ETV
attr source BitTorrentClient_DownloadComplete_Test
attr title "Descargas completas (prueba), vector"
67	43907 67 167 224418228 36001 36204.601646474459 2 36001 36204.601646474 72205.601646474 2606845181.3799
vector 69  BasicTopology.peer[34].bitTorrentApp.bitTorrentClient  DownloadComplete_Test:vector  ETV
attr source BitTorrentClient_DownloadComplete_Test
attr title "Descargas completas (prueba), vector"
69	43974 67 168 231610652 36001 36216.215941758842 2 36001 36216.215941759 72217.215941759 2607686298.1401
vector 71  BasicTopology.peer[35].bitTorrentApp.bitTorrentClient  DownloadComplete_Test:vector  ETV
attr source BitTorrentClient_DownloadComplete_Test
attr title "Descargas completas (prueba), vector"
71	44041 67 169 229908623 36001 36212.968345219382 2 36001 36212.968345219 72213.968345219 2607451077.3718
vector 73  BasicTopology.peer[36].bitTorrentApp.bitTorrentClient  DownloadComplete_Test:vector  ETV
attr source BitTorrentClient_DownloadComplete_Test
attr title "Descargas completas (prueba), vector"
73	44108 67 170 238368096 36001 36249.212331027853 2 36001 36249.212331028 72250.212331028 2610077395.62
vector 75  BasicTopology.peer[37].bitTorrentApp.bitTorrentClient  DownloadComplete_Test:vector  ETV
attr source BitTorrentClient_DownloadComplete_Test
attr title "Descargas completas (prueba), vector"
75	44175 67 171 228484896 36001 36211.047222356814 2 36001 36211.047222357 72212.047222357 2607311941.9398
vector 77  BasicTopology.peer[38].bitTorrentApp.bitTorrentClient  DownloadComplete_Test:vector  ETV
attr source BitTorrentClient_DownloadComplete_Test
attr title "Descargas completas (prueba), vector"
77	44242 66 172 223653542 36001 36203.29930903259 2 36001 36203.299309033 72204.299309033 2606750881.8594
vector 79  BasicTopology.peer[39].bitTorrentApp.bitTorrentClient  DownloadComplete_Test:vector  ETV
attr source BitTorrentClient_DownloadComplete_Test
attr title "Descargas completas (prueba), vector"
79	44308 67 173 211004813 36001 36185.566416426458 2 36001 36185.566416426 72186.566416426 2605467217.8776
vector 81  BasicTopology.peer[40].bitTorrentApp.bitTorrentClient  DownloadComplete_Test:vector  ETV
attr source BitTorrentClient_DownloadComplete_Test
attr title "Descargas completas (prueba), vector"
81	44375 67 174 224222994 36001 36204.234190717743 2 36001 36204.234190718 72205.234190718 2606818574.3364
vector 83  BasicTopology.peer[41].bitTorrentApp.bitTorrentClient  DownloadComplete_Test:vector  ETV
attr source BitTorrentClient_DownloadComplete_Test
attr title "Descargas completas (prueba), vector"
83	44442 67 175 207604722 36001 36181.591623780975 2 36001 36181.591623781 72182.591623781 2605179573.4301
vector 85  BasicTopology.peer[42].bitTorrentApp.bitTorrentClient  DownloadComplete_Test:vector  ETV
attr source BitTorrentClient_DownloadComplete_Test
attr title "Descargas completas (prueba), vector"
85	44509 67 176 203888204 36001 36177.726600373156 2 36001 36177.726600373 72178.726600373 2604899902.9713
vector 87  BasicTopology.peer[43].bitTorrentApp.bitTorrentClient  DownloadComplete_Test:vector  ETV
attr source BitTorrentClient_DownloadComplete_Test
attr title "Descargas completas (prueba), vector"
87	44576 67 177 184125752 36001 36157.566690271418 2 36001 36157.566690271 72158.566690271 2603441629.9614
vector 89  BasicTopology.peer[44].bitTorrentApp.bitTorrentClient  DownloadComplete_Test:vector  ETV
attr source BitTorrentClient_DownloadComplete_Test
attr title "Descargas completas (prueba), vector"
89	44643 67 178 221715909 36001 36200.491460744396 2 36001 36200.491460744 72201.491460744 2606547582.9994
vector 91  BasicTopology.peer[45].bitTorrentApp.bitTorrentClient  DownloadComplete_Test:vector  ETV
attr source BitTorrentClient_DownloadComplete_Test
attr title "Descargas completas (prueba), vector"
91	44710 67 179 230475791 36001 36213.878393296756 2 36001 36213.878393297 72214.878393297 2607516989.2845
vector 93  BasicTopology.peer[46].bitTorrentApp.bitTorrentClient  DownloadComplete_Test:vector  ETV
attr source BitTorrentClient_DownloadComplete_Test
attr title "Descargas completas (prueba), vector"
93	44777 67 180 232247164 36001 36218.317285481128 2 36001 36218.317285481 72219.317285481 2607838507.9918
vector 95  BasicTopology.peer[47].bitTorrentApp.bitTorrentClient  DownloadComplete_Test:vector  ETV
attr source BitTorrentClient_DownloadComplete_Test
attr title "Descargas completas (prueba), vector"
95	44844 67 181 228245863 36001 36210.718994543133 2 36001 36210.718994543 72211.718994543 2607288171.1018
vector 97  BasicTopology.peer[48].bitTorrentApp.bitTorrentClient  DownloadComplete_Test:vector  ETV
attr source BitTorrentClient_DownloadComplete_Test
attr title "Descargas completas (prueba), vector"
97	44911 67 182 202238680 36001 36175.862083063519 2 36001 36175.862083064 72176.862083064 2604764998.4529
vector 99  BasicTopology.peer[49].bitTorrentApp.bitTorrentClient  DownloadComplete_Test:vector  ETV
attr source BitTorrentClient_DownloadComplete_Test
attr title "Descargas completas (prueba), vector"
99	44978 67 183 193159273 36001 36166.437286897675 2 36001 36166.437286898 72167.437286898 2604083187.0271
vector 1633  BasicTopology.peer[0].bitTorrentApp.bitTorrentClient.contentManager_51  TotalBytesUploaded:vector  ETV
attr source ContentManager_TotalBytesUploaded
attr title "Total of Bytes Uploaded, vector"
attr unit B
1633	45045 11662 501701 212530172 36001.215069409129 36187.422912729942 287 32768 9404416 1354235904 8.5053237362688e+15
vector 1648  BasicTopology.peer[2].bitTorrentApp.bitTorrentClient.contentManager_51  TotalBytesDownloaded:vector  ETV
attr source ContentManager_TotalBytesDownloaded
attr title "Total of Bytes Downloaded, vector"
attr unit B
1648	66771 3880 1009019 197398621 36001.778716530397 36170.777326249283 96 32768 3145728 152567808 3.2162433099366e+14
vector 1800  BasicTopology.peer[21].bitTorrentApp.bitTorrentClient.contentManager_51  TotalBytesDownloaded:vector  ETV
attr source ContentManager_TotalBytesDownloaded
attr title "Total of Bytes Downloaded, vector"
attr unit B
1800	255331 3897 1596607 188063685 36002.67667642019 36161.291879283808 96 32768 3145728 152567808 3.2162433099366e+14
vector 1696  BasicTopology.peer[8].bitTorrentApp.bitTorrentClient.contentManager_51  TotalBytesDownloaded:vector  ETV
attr source ContentManager_TotalBytesDownloaded
attr title "Total of Bytes Downloaded, vector"
attr unit B
1696	129767 3932 1745061 210398245 36002.887326205355 36184.875960393722 96 32768 3145728 152567808 3.2162433099366e+14
vector 1728  BasicTopology.peer[12].bitTorrentApp.bitTorrentClient.contentManager_51  TotalBytesDownloaded:vector  ETV
attr source ContentManager_TotalBytesDownloaded
attr title "Total of Bytes Downloaded, vector"
attr unit B
1728	175681 3902 1935274 200426504 36003.339688968493 36173.816571410999 96 32768 3145728 152567808 3.2162433099366e+14
vector 1727  BasicTopology.peer[12].bitTorrentApp.bitTorrentClient.contentManager_51  PiecesDownloaded:vector  ETV
attr source ContentManager_PieceDownloaded
attr title "Pieces Downloaded, vector"
1727	175258 423 3071374 200426504 36004.767859691296 36173.816571410999 12 0 11 66 506
vector 1729  BasicTopology.peer[12].bitTorrentApp.bitTorrentClient.contentManager_51  TotalBytesUploaded:vector  ETV
attr source ContentManager_TotalBytesUploaded
attr title "Total of Bytes Uploaded, vector"
attr unit B
1729	179583 12649 3097383 220605147 36004.817343015785 36198.921861016608 309 32768 10125312 1569423360 1.0611076408279e+16
vector 1880  BasicTopology.peer[31].bitTorrentApp.bitTorrentClient.contentManager_51  TotalBytesDownloaded:vector  ETV
attr source ContentManager_TotalBytesDownloaded
attr title "Total of Bytes Downloaded, vector"
attr unit B
1880	335193 3930 3623201 206125970 36006.158309916554 36180.051555467363 96 32768 3145728 152567808 3.2162433099366e+14
vector 1664  BasicTopology.peer[4].bitTorrentApp.bitTorrentClient.contentManager_51  TotalBytesDownloaded:vector  ETV
attr source ContentManager_TotalBytesDownloaded
attr title "Total of Bytes Downloaded, vector"
attr unit B
1664	91956 3893 3706424 171481087 36006.290367502051 36145.894010747092 96 32768 3145728 152567808 3.2162433099366e+14
vector 1712  BasicTopology.peer[10].bitTorrentApp.bitTorrentClient.contentManager_51  TotalBytesDownloaded:vector  ETV
attr source ContentManager_TotalBytesDownloaded
attr title "Total of Bytes Downloaded, vector"
attr unit B
1712	150597 3905 3744487 180991487 36006.362994537116 36154.652727867959 96 32768 3145728 152567808 3.2162433099366e+14
vector 1711  BasicTopology.peer[10].bitTorrentApp.bitTorrentClient.contentManager_51  PiecesDownloaded:vector  ETV
attr source ContentManager_PieceDownloaded
attr title "Pieces Downloaded, vector"
1711	150174 423 4132122 180991487 36007.056484014094 36154.652727867959 12 0 11 66 506
vector 1713  BasicTopology.peer[10].bitTorrentApp.bitTorrentClient.contentManager_51  TotalBytesUploaded:vector  ETV
attr source ContentManager_TotalBytesUploaded
attr title "Total of Bytes Uploaded, vector"
attr unit B
1713	154502 11797 4183007 231940983 36007.092761390411 36217.190999040516 289 32768 9469952 1373143040 8.684064169001e+15
vector 1879  BasicTopology.peer[31].bitTorrentApp.bitTorrentClient.contentManager_51  PiecesDownloaded:vector  ETV
attr source ContentManager_PieceDownloaded
attr title "Pieces Downloaded, vector"
1879	334767 426 4547098 206125970 36007.693027765751 36180.051555467363 12 0 11 66 506
vector 1881  BasicTopology.peer[31].bitTorrentApp.bitTorrentClient.contentManager_51  TotalBytesUploaded:vector  ETV
attr source ContentManager_TotalBytesUploaded
attr title "Total of Bytes Uploaded, vector"
attr unit B
1881	339123 3492 4571337 93692775 36007.718140358668 36081.887954164985 87 32768 2850816 125435904 2.397665492992e+14
vector 1896  BasicTopology.peer[33].bitTorrentApp.bitTorrentClient.contentManager_51  TotalBytesDownloaded:vector  ETV
attr source ContentManager_TotalBytesDownloaded
attr title "Total of Bytes Downloaded, vector"
attr unit B
1896	351308 3944 4642089 224418228 36007.846531297011 36204.601646474459 96 32768 3145728 152567808 3.2162433099366e+14
vector 1799  BasicTopology.peer[21].bitTorrentApp.bitTorrentClient.contentManager_51  PiecesDownloaded:vector  ETV
attr source ContentManager_PieceDownloaded
attr title "Pieces Downloaded, vector"
1799	254909 422 4925614 188063685 36008.352550072904 36161.291879283808 12 0 11 66 506
vector 1736  BasicTopology.peer[13].bitTorrentApp.bitTorrentClient.contentManager_51  TotalBytesDownloaded:vector  ETV
attr source ContentManager_TotalBytesDownloaded
attr title "Total of Bytes Downloaded, vector"
attr unit B
1736	192658 3936 4926458 236989656 36008.35432594904 36245.797058511926 96 32768 3145728 152567808 3.2162433099366e+14
vector 1801  BasicTopology.peer[21].bitTorrentApp.bitTorrentClient.contentManager_51  TotalBytesUploaded:vector  ETV
attr source ContentManager_TotalBytesUploaded
attr title "Total of Bytes Uploaded, vector"
attr unit B
1801	259228 12791 4964055 236416163 36008.424339880503 36244.315043424274 312 32768 10223616 1599995904 1.092263870464e+16
vector 1912  BasicTopology.peer[35].bitTorrentApp.bitTorrentClient.contentManager_51  TotalBytesDownloaded:vector  ETV
attr source ContentManager_TotalBytesDownloaded
attr title "Total of Bytes Downloaded, vector"
attr unit B
1912	364021 3945 5373118 229908623 36008.738943240268 36212.968345219382 96 32768 3145728 152567808 3.2162433099366e+14
vector 1720  BasicTopology.peer[11].bitTorrentApp.bitTorrentClient.contentManager_51  TotalBytesDownloaded:vector  ETV
attr source ContentManager_TotalBytesDownloaded
attr title "Total of Bytes Downloaded, vector"
attr unit B
1720	166724 3938 5491590 221370410 36008.988052321953 36200.118774495856 96 32768 3145728 152567808 3.2162433099366e+14
vector 1656  BasicTopology.peer[3].bitTorrentApp.bitTorrentClient.contentManager_51  TotalBytesDownloaded:vector  ETV
attr source ContentManager_TotalBytesDownloaded
attr title "Total of Bytes Downloaded, vector"
attr unit B
1656	81543 3907 5699648 203242395 36009.340476157422 36177.013245870098 96 32768 3145728 152567808 3.2162433099366e+14
vector 1911  BasicTopology.peer[35].bitTorrentApp.bitTorrentClient.contentManager_51  PiecesDownloaded:vector  ETV
attr source ContentManager_PieceDownloaded
attr title "Pieces Downloaded, vector"
1911	363592 429 5812792 229908623 36009.541731202869 36212.968345219382 12 0 11 66 506
vector 1913  BasicTopology.peer[35].bitTorrentApp.bitTorrentClient.contentManager_51  TotalBytesUploaded:vector  ETV
attr source ContentManager_TotalBytesUploaded
attr title "Total of Bytes Uploaded, vector"
attr unit B
1913	367966 2477 5844119 230578927 36009.588923604437 36214.00985229042 62 32768 2031616 63995904 87375740928000
vector 1640  BasicTopology.peer[1].bitTorrentApp.bitTorrentClient.contentManager_51  TotalBytesDownloaded:vector  ETV
attr source ContentManager_TotalBytesDownloaded
attr title "Total of Bytes Downloaded, vector"
attr unit B
1640	57133 3908 6005250 214275635 36009.752215497498 36189.951806688196 96 32768 3145728 152567808 3.2162433099366e+14
vector 1864  BasicTopology.peer[29].bitTorrentApp.bitTorrentClient.contentManager_51  TotalBytesDownloaded:vector  ETV
attr source ContentManager_TotalBytesDownloaded
attr title "Total of Bytes Downloaded, vector"
attr unit B
1864	317828 5028 6073431 216853412 36009.821982593565 36193.706067797052 122 32768 3997696 245858304 6.5792993394688e+14
vector 1920  BasicTopology.peer[36].bitTorrentApp.bitTorrentClient.contentManager_51  TotalBytesDownloaded:vector  ETV
attr source ContentManager_TotalBytesDownloaded
attr title "Total of Bytes Downloaded, vector"
attr unit B
1920	370872 3950 6705071 238368096 36010.318029173568 36249.212331027853 96 32768 3145728 152567808 3.2162433099366e+14
vector 1672  BasicTopology.peer[5].bitTorrentApp.bitTorrentClient.contentManager_51  TotalBytesDownloaded:vector  ETV
attr source ContentManager_TotalBytesDownloaded
attr title "Total of Bytes Downloaded, vector"
attr unit B
1672	106546 3951 6778905 200957697 36010.428925667015 36174.437477681607 96 32768 3145728 152567808 3.2162433099366e+14
vector 1704  BasicTopology.peer[9].bitTorrentApp.bitTorrentClient.contentManager_51  TotalBytesDownloaded:vector  ETV
attr source ContentManager_TotalBytesDownloaded
attr title "Total of Bytes Downloaded, vector"
attr unit B
1704	140000 3936 7032825 228159542 36010.760918421725 36210.58590254466 96 32768 3145728 152567808 3.2162433099366e+14
vector 1895  BasicTopology.peer[33].bitTorrentApp.bitTorrentClient.contentManager_51  PiecesDownloaded:vector  ETV
attr source ContentManager_PieceDownloaded
attr title "Pieces Downloaded, vector"
1895	350879 429 7694832 224418228 36011.634787363347 36204.601646474459 12 0 11 66 506
vector 1897  BasicTopology.peer[33].bitTorrentApp.bitTorrentClient.contentManager_51  TotalBytesUploaded:vector  ETV
attr source ContentManager_TotalBytesUploaded
attr title "Total of Bytes Uploaded, vector"
attr unit B
1897	355252 3535 7721255 45154013 36011.67137970869 36044.027871701007 88 32768 2883584 128319488 2.4808160598426e+14
vector 1792  BasicTopology.peer[20].bitTorrentApp.bitTorrentClient.contentManager_51  TotalBytesDownloaded:vector  ETV
attr source ContentManager_TotalBytesDownloaded
attr title "Total of Bytes Downloaded, vector"
attr unit B
1792	244593 4150 7839726 222783016 36011.856292705855 36202.112535465945 101 32768 3309568 168787968 3.7425378649702e+14
vector 1760  BasicTopology.peer[16].bitTorrentApp.bitTorrentClient.contentManager_51  TotalBytesDownloaded:vector  ETV
attr source ContentManager_TotalBytesDownloaded
attr title "Total of Bytes Downloaded, vector"
attr unit B
1760	215501 3944 8033491 236538926 36012.144234205109 36244.541501887284 96 32768 3145728 152567808 3.2162433099366e+14
vector 1663  BasicTopology.peer[4].bitTorrentApp.bitTorrentClient.contentManager_51  PiecesDownloaded:vector  ETV
attr source ContentManager_PieceDownloaded
attr title "Pieces Downloaded, vector"
1663	91534 422 8055769 171481087 36012.163728575949 36145.894010747092 12 0 11 66 506
vector 1665  BasicTopology.peer[4].bitTorrentApp.bitTorrentClient.contentManager_51  TotalBytesUploaded:vector  ETV
attr source ContentManager_TotalBytesUploaded
attr title "Total of Bytes Uploaded, vector"
attr unit B
1665	95849 10268 8136398 174574302 36012.232513769063 36148.709167159746 251 32768 8224768 1036320768 5.6936513132298e+15
vector 1808  BasicTopology.peer[22].bitTorrentApp.bitTorrentClient.contentManager_51  TotalBytesDownloaded:vector  ETV
attr source ContentManager_TotalBytesDownloaded
attr title "Total of Bytes Downloaded, vector"
attr unit B
1808	272448 3952 8169460 222848232 36012.265446125115 36202.224461918116 96 32768 3145728 152567808 3.2162433099366e+14
vector 1647  BasicTopology.peer[2].bitTorrentApp.bitTorrentClient.contentManager_51  PiecesDownloaded:vector  ETV
attr source ContentManager_PieceDownloaded
attr title "Pieces Downloaded, vector"
1647	66350 421 9129822 197398621 36013.280010879996 36170.777326249283 12 0 11 66 506
vector 1856  BasicTopology.peer[28].bitTorrentApp.bitTorrentClient.contentManager_51  TotalBytesDownloaded:vector  ETV
attr source ContentManager_TotalBytesDownloaded
attr title "Total of Bytes Downloaded, vector"
attr unit B
1856	311402 3941 9287828 198811745 36013.464508944068 36172.218228653102 96 32768 3145728 152567808 3.2162433099366e+14
vector 1688  BasicTopology.peer[7].bitTorrentApp.bitTorrentClient.contentManager_51  TotalBytesDownloaded:vector  ETV
attr source ContentManager_TotalBytesDownloaded
attr title "Total of Bytes Downloaded, vector"
attr unit B
1688	122790 3949 9525972 216702303 36013.729454125431 36193.531234870967 96 32768 3145728 152567808 3.2162433099366e+14
vector 1703  BasicTopology.peer[9].bitTorrentApp.bitTorrentClient.contentManager_51  PiecesDownloaded:vector  ETV
attr source ContentManager_PieceDownloaded
attr title "Pieces Downloaded, vector"
1703	139573 427 9592017 228159542 36013.785080033697 36210.58590254466 12 0 11 66 506
vector 1705  BasicTopology.peer[9].bitTorrentApp.bitTorrentClient.contentManager_51  TotalBytesUploaded:vector  ETV
attr source ContentManager_TotalBytesUploaded
attr title "Total of Bytes Uploaded, vector"
attr unit B
1705	143936 6238 9607566 160690605 36013.79696588221 36135.946054096705 153 32768 5013504 386039808 1.2944913318543e+15
vector 1655  BasicTopology.peer[3].bitTorrentApp.bitTorrentClient.contentManager_51  PiecesDownloaded:vector  ETV
attr source ContentManager_PieceDownloaded
attr title "Pieces Downloaded, vector"
1655	81121 422 9651570 203242395 36013.835127052886 36177.013245870098 12 0 11 66 506
vector 1784  BasicTopology.peer[19].bitTorrentApp.bitTorrentClient.contentManager_51  TotalBytesDownloaded:vector  ETV
attr source ContentManager_TotalBytesDownloaded
attr title "Total of Bytes Downloaded, vector"
attr unit B
1784	236003 3921 9678002 183693381 36013.856789503238 36157.150475831791 96 32768 3145728 152567808 3.2162433099366e+14
vector 1824  BasicTopology.peer[24].bitTorrentApp.bitTorrentClient.contentManager_51  TotalBytesDownloaded:vector  ETV
attr source ContentManager_TotalBytesDownloaded
attr title "Total of Bytes Downloaded, vector"
attr unit B
1824	282973 4241 9769070 209949520 36013.972532540599 36184.306122844734 103 32768 3375104 175505408 3.9681632344474e+14
vector 1695  BasicTopology.peer[8].bitTorrentApp.bitTorrentClient.contentManager_51  PiecesDownloaded:vector  ETV
attr source ContentManager_PieceDownloaded
attr title "Pieces Downloaded, vector"