file 466175 1593887681                                          
version 2
run Test-7-20200525-12:23:04-6602
attr configname Test
attr datetime 20200525-12:23:04
attr experiment "\"Simulation Test\""
attr inifile BasicConfig.ini
attr iterationvars ""
attr iterationvars2 $repetition=7
attr measurement "\"Peers: $peers, Rate: $rate\""
attr network BasicTopology
attr processid 6602
attr repetition 7
attr replication #7
attr resultdir results
attr runnumber 7
attr seedset 7
vector 3  BasicTopology.peer[1].bitTorrentApp.bitTorrentClient  DownloadComplete_Test:vector  ETV
attr source BitTorrentClient_DownloadComplete_Test
attr title "Descargas completas (prueba), vector"
3	42216 63 135 86322079 36001 36078.12158550721 2 36001 36078.121585507 72079.121585507 2597702858.1386
vector 5  BasicTopology.peer[2].bitTorrentApp.bitTorrentClient  DownloadComplete_Test:vector  ETV
attr source BitTorrentClient_DownloadComplete_Test
attr title "Descargas completas (prueba), vector"
5	42279 65 136 176269225 36001 36158.148161598588 2 36001 36158.148161599 72159.148161599 2603483679.4761
vector 7  BasicTopology.peer[3].bitTorrentApp.bitTorrentClient  DownloadComplete_Test:vector  ETV
attr source BitTorrentClient_DownloadComplete_Test
attr title "Descargas completas (prueba), vector"
7	42344 65 137 174607651 36001 36156.409381856028 2 36001 36156.409381856 72157.409381856 2603357940.3884
vector 9  BasicTopology.peer[4].bitTorrentApp.bitTorrentClient  DownloadComplete_Test:vector  ETV
attr source BitTorrentClient_DownloadComplete_Test
attr title "Descargas completas (prueba), vector"
9	42409 65 138 194851652 36001 36179.993064800853 2 36001 36179.993064801 72180.993064801 2605063899.169
vector 11  BasicTopology.peer[5].bitTorrentApp.bitTorrentClient  DownloadComplete_Test:vector  ETV
attr source BitTorrentClient_DownloadComplete_Test
attr title "Descargas completas (prueba), vector"
11	42474 67 139 192658054 36001 36177.541562245317 2 36001 36177.541562245 72178.541562245 2604886514.488
vector 13  BasicTopology.peer[6].bitTorrentApp.bitTorrentClient  DownloadComplete_Test:vector  ETV
attr source BitTorrentClient_DownloadComplete_Test
attr title "Descargas completas (prueba), vector"
13	42541 67 140 204512103 36001 36192.667247778705 2 36001 36192.667247779 72193.667247779 2605981163.5085
vector 15  BasicTopology.peer[7].bitTorrentApp.bitTorrentClient  DownloadComplete_Test:vector  ETV
attr source BitTorrentClient_DownloadComplete_Test
attr title "Descargas completas (prueba), vector"
15	42608 67 141 219369529 36001 36215.829705733786 2 36001 36215.829705734 72216.829705734 2607658322.2747
vector 17  BasicTopology.peer[8].bitTorrentApp.bitTorrentClient  DownloadComplete_Test:vector  ETV
attr source BitTorrentClient_DownloadComplete_Test
attr title "Descargas completas (prueba), vector"
17	42675 67 142 215334453 36001 36208.230722585028 2 36001 36208.230722585 72209.230722585 2607107973.0599
vector 19  BasicTopology.peer[9].bitTorrentApp.bitTorrentClient  DownloadComplete_Test:vector  ETV
attr source BitTorrentClient_DownloadComplete_Test
attr title "Descargas completas (prueba), vector"
19	42742 67 143 191568355 36001 36176.219290305507 2 36001 36176.219290306 72177.219290306 2604790843.1403
vector 21  BasicTopology.peer[10].bitTorrentApp.bitTorrentClient  DownloadComplete_Test:vector  ETV
attr source BitTorrentClient_DownloadComplete_Test
attr title "Descargas completas (prueba), vector"
21	42809 67 144 152942155 36001 36134.380601202715 2 36001 36134.380601203 72135.380601203 2601765462.4326
vector 23  BasicTopology.peer[11].bitTorrentApp.bitTorrentClient  DownloadComplete_Test:vector  ETV
attr source BitTorrentClient_DownloadComplete_Test
attr title "Descargas completas (prueba), vector"
23	42876 66 145 90620280 36001 36081.442524041437 2 36001 36081.442524041 72082.442524041 2597942495.6157
vector 25  BasicTopology.peer[12].bitTorrentApp.bitTorrentClient  DownloadComplete_Test:vector  ETV
attr source BitTorrentClient_DownloadComplete_Test
attr title "Descargas completas (prueba), vector"
25	42942 67 146 185931210 36001 36169.291169038376 2 36001 36169.291169038 72170.291169038 2604289624.6707
vector 27  BasicTopology.peer[13].bitTorrentApp.bitTorrentClient  DownloadComplete_Test:vector  ETV
attr source BitTorrentClient_DownloadComplete_Test
attr title "Descargas completas (prueba), vector"
27	43009 67 147 200826104 36001 36187.760769557086 2 36001 36187.760769557 72188.760769557 2605626030.5147
vector 29  BasicTopology.peer[14].bitTorrentApp.bitTorrentClient  DownloadComplete_Test:vector  ETV
attr source BitTorrentClient_DownloadComplete_Test
attr title "Descargas completas (prueba), vector"
29	43076 66 148 189590863 36001 36173.746410959752 2 36001 36173.74641096 72174.74641096 2604611930.4044
vector 31  BasicTopology.peer[15].bitTorrentApp.bitTorrentClient  DownloadComplete_Test:vector  ETV
attr source BitTorrentClient_DownloadComplete_Test
attr title "Descargas completas (prueba), vector"
31	43142 67 149 167741722 36001 36149.326646118967 2 36001 36149.326646119 72150.326646119 2602845817.9678
vector 33  BasicTopology.peer[16].bitTorrentApp.bitTorrentClient  DownloadComplete_Test:vector  ETV
attr source BitTorrentClient_DownloadComplete_Test
attr title "Descargas completas (prueba), vector"
33	43209 67 150 201014838 36001 36187.988336821035 2 36001 36187.988336821 72188.988336821 2605642500.8659
vector 35  BasicTopology.peer[17].bitTorrentApp.bitTorrentClient  DownloadComplete_Test:vector  ETV
attr source BitTorrentClient_DownloadComplete_Test
attr title "Descargas completas (prueba), vector"
35	43276 67 151 213541966 36001 36205.934774918889 2 36001 36205.934774919 72206.934774919 2606941713.9257
vector 37  BasicTopology.peer[18].bitTorrentApp.bitTorrentClient  DownloadComplete_Test:vector  ETV
attr source BitTorrentClient_DownloadComplete_Test
attr title "Descargas completas (prueba), vector"
37	43343 67 152 213995552 36001 36206.627217902752 2 36001 36206.627217903 72207.627217903 2606991855.4962
vector 39  BasicTopology.peer[19].bitTorrentApp.bitTorrentClient  DownloadComplete_Test:vector  ETV
attr source BitTorrentClient_DownloadComplete_Test
attr title "Descargas completas (prueba), vector"
39	43410 67 153 212465908 36001 36204.534849868993 2 36001 36204.534849869 72205.534849869 2606840344.6954
vector 41  BasicTopology.peer[20].bitTorrentApp.bitTorrentClient  DownloadComplete_Test:vector  ETV
attr source BitTorrentClient_DownloadComplete_Test
attr title "Descargas completas (prueba), vector"
41	43477 67 154 174506930 36001 36156.284170128721 2 36001 36156.284170129 72157.284170129 2603348885.9911
vector 43  BasicTopology.peer[21].bitTorrentApp.bitTorrentClient  DownloadComplete_Test:vector  ETV
attr source BitTorrentClient_DownloadComplete_Test
attr title "Descargas completas (prueba), vector"
43	43544 67 155 165388610 36001 36146.777086062202 2 36001 36146.777086062 72147.777086062 2602661494.7095
vector 45  BasicTopology.peer[22].bitTorrentApp.bitTorrentClient  DownloadComplete_Test:vector  ETV
attr source BitTorrentClient_DownloadComplete_Test
attr title "Descargas completas (prueba), vector"
45	43611 67 156 198710009 36001 36185.053904922278 2 36001 36185.053904922 72186.053904922 2605430127.1021
vector 47  BasicTopology.peer[23].bitTorrentApp.bitTorrentClient  DownloadComplete_Test:vector  ETV
attr source BitTorrentClient_DownloadComplete_Test
attr title "Descargas completas (prueba), vector"
47	43678 67 157 203154667 36001 36190.910942326358 2 36001 36190.910942326 72191.910942326 2605854035.8354
vector 49  BasicTopology.peer[24].bitTorrentApp.bitTorrentClient  DownloadComplete_Test:vector  ETV
attr source BitTorrentClient_DownloadComplete_Test
attr title "Descargas completas (prueba), vector"
49	43745 67 158 215798791 36001 36209.035242489338 2 36001 36209.035242489 72210.035242489 2607166234.1918
vector 51  BasicTopology.peer[25].bitTorrentApp.bitTorrentClient  DownloadComplete_Test:vector  ETV
attr source BitTorrentClient_DownloadComplete_Test
attr title "Descargas completas (prueba), vector"
51	43812 67 159 226571036 36001 36247.411285418711 2 36001 36247.411285419 72248.411285419 2609946825.8943
vector 53  BasicTopology.peer[26].bitTorrentApp.bitTorrentClient  DownloadComplete_Test:vector  ETV
attr source BitTorrentClient_DownloadComplete_Test
attr title "Descargas completas (prueba), vector"
53	43879 67 160 210998206 36001 36202.105650291298 2 36001 36202.105650291 72203.105650291 2606664454.5148
vector 55  BasicTopology.peer[27].bitTorrentApp.bitTorrentClient  DownloadComplete_Test:vector  ETV
attr source BitTorrentClient_DownloadComplete_Test
attr title "Descargas completas (prueba), vector"
55	43946 67 161 210510107 36001 36201.396573137751 2 36001 36201.396573138 72202.396573138 2606613114.8456
vector 57  BasicTopology.peer[28].bitTorrentApp.bitTorrentClient  DownloadComplete_Test:vector  ETV
attr source BitTorrentClient_DownloadComplete_Test
attr title "Descargas completas (prueba), vector"
57	44013 67 162 203235754 36001 36191.102807710805 2 36001 36191.102807711 72192.102807711 2605867923.4383
vector 59  BasicTopology.peer[29].bitTorrentApp.bitTorrentClient  DownloadComplete_Test:vector  ETV
attr source BitTorrentClient_DownloadComplete_Test
attr title "Descargas completas (prueba), vector"
59	44080 67 163 194003278 36001 36178.911835171632 2 36001 36178.911835172 72179.911835172 2604985662.5771
vector 61  BasicTopology.peer[30].bitTorrentApp.bitTorrentClient  DownloadComplete_Test:vector  ETV
attr source BitTorrentClient_DownloadComplete_Test
attr title "Descargas completas (prueba), vector"
61	44147 67 164 169339872 36001 36150.909823521663 2 36001 36150.909823522 72151.909823522 2602960282.0684
vector 63  BasicTopology.peer[31].bitTorrentApp.bitTorrentClient  DownloadComplete_Test:vector  ETV
attr source BitTorrentClient_DownloadComplete_Test
attr title "Descargas completas (prueba), vector"
63	44214 65 165 131621714 36001 36114.696487600368 2 36001 36114.6964876 72115.6964876 2600343303.3915
vector 65  BasicTopology.peer[32].bitTorrentApp.bitTorrentClient  DownloadComplete_Test:vector  ETV
attr source BitTorrentClient_DownloadComplete_Test
attr title "Descargas completas (prueba), vector"
65	44279 67 166 215050510 36001 36207.779082568897 2 36001 36207.779082569 72208.779082569 2607075267.0921
vector 67  BasicTopology.peer[33].bitTorrentApp.bitTorrentClient  DownloadComplete_Test:vector  ETV
attr source BitTorrentClient_DownloadComplete_Test
attr title "Descargas completas (prueba), vector"
67	44346 67 167 201066482 36001 36188.065617188389 2 36001 36188.065617188 72189.065617188 2605648094.1139
vector 69  BasicTopology.peer[34].bitTorrentApp.bitTorrentClient  DownloadComplete_Test:vector  ETV
attr source BitTorrentClient_DownloadComplete_Test
attr title "Descargas completas (prueba), vector"
69	44413 66 168 195322064 36001 36180.66630378148 2 36001 36180.666303781 72181.666303781 2605112615.1856
vector 71  BasicTopology.peer[35].bitTorrentApp.bitTorrentClient  DownloadComplete_Test:vector  ETV
attr source BitTorrentClient_DownloadComplete_Test
attr title "Descargas completas (prueba), vector"
71	44479 67 169 209572127 36001 36200.045170003645 2 36001 36200.045170004 72201.045170004 2606515271.3103
vector 73  BasicTopology.peer[36].bitTorrentApp.bitTorrentClient  DownloadComplete_Test:vector  ETV
attr source BitTorrentClient_DownloadComplete_Test
attr title "Descargas completas (prueba), vector"
73	44546 67 170 215878844 36001 36209.155548544183 2 36001 36209.155548544 72210.155548544 2607174946.5387
vector 75  BasicTopology.peer[37].bitTorrentApp.bitTorrentClient  DownloadComplete_Test:vector  ETV
attr source BitTorrentClient_DownloadComplete_Test
attr title "Descargas completas (prueba), vector"
75	44613 67 171 202650098 36001 36190.190549125656 2 36001 36190.190549126 72191.190549126 2605801892.982
vector 77  BasicTopology.peer[38].bitTorrentApp.bitTorrentClient  DownloadComplete_Test:vector  ETV
attr source BitTorrentClient_DownloadComplete_Test
attr title "Descargas completas (prueba), vector"
77	44680 67 172 205307829 36001 36193.633076846386 2 36001 36193.633076846 72194.633076846 2606051076.3014
vector 79  BasicTopology.peer[39].bitTorrentApp.bitTorrentClient  DownloadComplete_Test:vector  ETV
attr source BitTorrentClient_DownloadComplete_Test
attr title "Descargas completas (prueba), vector"
79	44747 67 173 218530772 36001 36214.255202783609 2 36001 36214.255202784 72215.255202784 2607544280.8924
vector 81  BasicTopology.peer[40].bitTorrentApp.bitTorrentClient  DownloadComplete_Test:vector  ETV
attr source BitTorrentClient_DownloadComplete_Test
attr title "Descargas completas (prueba), vector"
81	44814 66 174 75687572 36001 36069.771880337749 2 36001 36069.771880338 72070.771880338 2597100444.4996
vector 83  BasicTopology.peer[41].bitTorrentApp.bitTorrentClient  DownloadComplete_Test:vector  ETV
attr source BitTorrentClient_DownloadComplete_Test
attr title "Descargas completas (prueba), vector"
83	44880 67 175 220901485 36001 36219.068065674594 2 36001 36219.068065675 72220.068065675 2607892892.546
vector 85  BasicTopology.peer[42].bitTorrentApp.bitTorrentClient  DownloadComplete_Test:vector  ETV
attr source BitTorrentClient_DownloadComplete_Test
attr title "Descargas completas (prueba), vector"
85	44947 63 176 221190027 36001 36220.3496202002 2 36001 36220.3496202 72221.3496202 2607985727.6095
vector 87  BasicTopology.peer[43].bitTorrentApp.bitTorrentClient  DownloadComplete_Test:vector  ETV
attr source BitTorrentClient_DownloadComplete_Test
attr title "Descargas completas (prueba), vector"
87	45010 67 177 182592007 36001 36165.251408195247 2 36001 36165.251408195 72166.251408195 2603997410.418
vector 89  BasicTopology.peer[44].bitTorrentApp.bitTorrentClient  DownloadComplete_Test:vector  ETV
attr source BitTorrentClient_DownloadComplete_Test
attr title "Descargas completas (prueba), vector"
89	45077 67 178 184014455 36001 36167.016828125869 2 36001 36167.016828126 72168.016828126 2604125107.2459
vector 91  BasicTopology.peer[45].bitTorrentApp.bitTorrentClient  DownloadComplete_Test:vector  ETV
attr source BitTorrentClient_DownloadComplete_Test
attr title "Descargas completas (prueba), vector"
91	45144 67 179 174078565 36001 36155.799440846047 2 36001 36155.799440846 72156.799440846 2603313834.2067
vector 93  BasicTopology.peer[46].bitTorrentApp.bitTorrentClient  DownloadComplete_Test:vector  ETV
attr source BitTorrentClient_DownloadComplete_Test
attr title "Descargas completas (prueba), vector"
93	45211 67 180 213280639 36001 36205.669606512296 2 36001 36205.669606512 72206.669606512 2606922512.6559
vector 95  BasicTopology.peer[47].bitTorrentApp.bitTorrentClient  DownloadComplete_Test:vector  ETV
attr source BitTorrentClient_DownloadComplete_Test
attr title "Descargas completas (prueba), vector"
95	45278 67 181 223601078 36001 36228.312390506231 2 36001 36228.312390506 72229.312390506 2608562619.6641
vector 97  BasicTopology.peer[48].bitTorrentApp.bitTorrentClient  DownloadComplete_Test:vector  ETV
attr source BitTorrentClient_DownloadComplete_Test
attr title "Descargas completas (prueba), vector"
97	45345 67 182 216821928 36001 36210.848480804544 2 36001 36210.848480805 72211.848480805 2607297548.6998
vector 99  BasicTopology.peer[49].bitTorrentApp.bitTorrentClient  DownloadComplete_Test:vector  ETV
attr source BitTorrentClient_DownloadComplete_Test
attr title "Descargas completas (prueba), vector"
99	45412 67 183 211918346 36001 36203.661206288694 2 36001 36203.661206289 72204.661206289 2606777085.7398
vector 1633  BasicTopology.peer[0].bitTorrentApp.bitTorrentClient.contentManager_51  TotalBytesUploaded:vector  ETV
attr source ContentManager_TotalBytesUploaded
attr title "Total of Bytes Uploaded, vector"
attr unit B
1633	45479 11475 206398 149161349 36001.062809692343 36130.904457738753 284 32768 9306112 1326120960 8.2418382300774e+15
vector 1640  BasicTopology.peer[1].bitTorrentApp.bitTorrentClient.contentManager_51  TotalBytesDownloaded:vector  ETV
attr source ContentManager_TotalBytesDownloaded
attr title "Total of Bytes Downloaded, vector"
attr unit B
1640	57372 3864 298495 86322079 36001.106719706103 36078.12158550721 96 32768 3145728 152567808 3.2162433099366e+14
vector 1639  BasicTopology.peer[1].bitTorrentApp.bitTorrentClient.contentManager_51  PiecesDownloaded:vector  ETV
attr source ContentManager_PieceDownloaded
attr title "Pieces Downloaded, vector"
1639	56954 418 1683491 86322079 36003.446276975271 36078.12158550721 12 0 11 66 506
vector 1641  BasicTopology.peer[1].bitTorrentApp.bitTorrentClient.contentManager_51  TotalBytesUploaded:vector  ETV
attr source ContentManager_TotalBytesUploaded
attr title "Total of Bytes Uploaded, vector"
attr unit B
1641	61236 8531 1708559 118431983 36003.505368798283 36103.480780440747 211 32768 6914048 732889088 3.3861586586173e+15
vector 1880  BasicTopology.peer[31].bitTorrentApp.bitTorrentClient.contentManager_51  TotalBytesDownloaded:vector  ETV
attr source ContentManager_TotalBytesDownloaded
attr title "Total of Bytes Downloaded, vector"
attr unit B
1880	307743 3884 2179708 131621714 36004.234737498204 36114.696487600368 96 32768 3145728 152567808 3.2162433099366e+14
vector 1656  BasicTopology.peer[3].bitTorrentApp.bitTorrentClient.contentManager_51  TotalBytesDownloaded:vector  ETV
attr source ContentManager_TotalBytesDownloaded
attr title "Total of Bytes Downloaded, vector"
attr unit B
1656	81054 3925 2755061 174607651 36004.949223732128 36156.409381856028 96 32768 3145728 152567808 3.2162433099366e+14
vector 1736  BasicTopology.peer[13].bitTorrentApp.bitTorrentClient.contentManager_51  TotalBytesDownloaded:vector  ETV
attr source ContentManager_TotalBytesDownloaded
attr title "Total of Bytes Downloaded, vector"
attr unit B
1736	171208 3967 2913869 200826104 36005.109875259269 36187.760769557086 97 32768 3178496 155746304 3.3172716781568e+14
vector 1800  BasicTopology.peer[21].bitTorrentApp.bitTorrentClient.contentManager_51  TotalBytesDownloaded:vector  ETV
attr source ContentManager_TotalBytesDownloaded
attr title "Total of Bytes Downloaded, vector"
attr unit B
1800	242209 3945 3187393 165388610 36005.829467163463 36146.777086062202 96 32768 3145728 152567808 3.2162433099366e+14
vector 1808  BasicTopology.peer[22].bitTorrentApp.bitTorrentClient.contentManager_51  TotalBytesDownloaded:vector  ETV
attr source ContentManager_TotalBytesDownloaded
attr title "Total of Bytes Downloaded, vector"
attr unit B
1808	249500 3947 3286871 198710009 36006.068288892709 36185.053904922278 96 32768 3145728 152567808 3.2162433099366e+14
vector 1792  BasicTopology.peer[20].bitTorrentApp.bitTorrentClient.contentManager_51  TotalBytesDownloaded:vector  ETV
attr source ContentManager_TotalBytesDownloaded
attr title "Total of Bytes Downloaded, vector"
attr unit B
1792	224809 3888 3378361 174506930 36006.289909205709 36156.284170128721 96 32768 3145728 152567808 3.2162433099366e+14
vector 1735  BasicTopology.peer[13].bitTorrentApp.bitTorrentClient.contentManager_51  PiecesDownloaded:vector  ETV
attr source ContentManager_PieceDownloaded
attr title "Pieces Downloaded, vector"
1735	170782 426 3531350 200826104 36006.661288932793 36187.760769557086 12 0 11 66 506
vector 1737  BasicTopology.peer[13].bitTorrentApp.bitTorrentClient.contentManager_51  TotalBytesUploaded:vector  ETV
attr source ContentManager_TotalBytesUploaded
attr title "Total of Bytes Uploaded, vector"
attr unit B
1737	175175 8297 3549898 206871805 36006.7015823242 36195.715748224448 205 32768 6717440 691896320 3.1060720300851e+15
vector 1904  BasicTopology.peer[34].bitTorrentApp.bitTorrentClient.contentManager_51  TotalBytesDownloaded:vector  ETV
attr source ContentManager_TotalBytesDownloaded
attr title "Total of Bytes Downloaded, vector"
attr unit B
1904	338591 3939 3656098 195322064 36006.820263959049 36180.66630378148 96 32768 3145728 152567808 3.2162433099366e+14
vector 1720  BasicTopology.peer[11].bitTorrentApp.bitTorrentClient.contentManager_51  TotalBytesDownloaded:vector  ETV
attr source ContentManager_TotalBytesDownloaded
attr title "Total of Bytes Downloaded, vector"
attr unit B
1720	149887 3875 3819768 90620280 36007.043483109362 36081.442524041437 96 32768 3145728 152567808 3.2162433099366e+14
vector 1791  BasicTopology.peer[20].bitTorrentApp.bitTorrentClient.contentManager_51  PiecesDownloaded:vector  ETV
attr source ContentManager_PieceDownloaded
attr title "Pieces Downloaded, vector"
1791	224390 419 4199623 174506930 36007.791598500033 36156.284170128721 12 0 11 66 506
vector 1793  BasicTopology.peer[20].bitTorrentApp.bitTorrentClient.contentManager_51  TotalBytesUploaded:vector  ETV
attr source ContentManager_TotalBytesUploaded
attr title "Total of Bytes Uploaded, vector"
attr unit B
1793	228697 13083 4228660 213405153 36007.860981224979 36205.79631713669 319 32768 10452992 1672478720 1.1673205714452e+16
vector 1960  BasicTopology.peer[41].bitTorrentApp.bitTorrentClient.contentManager_51  TotalBytesDownloaded:vector  ETV
attr source ContentManager_TotalBytesDownloaded
attr title "Total of Bytes Downloaded, vector"
attr unit B
1960	392310 3918 4414778 220901485 36008.124573774868 36219.068065674594 96 32768 3145728 152567808 3.2162433099366e+14
vector 1776  BasicTopology.peer[18].bitTorrentApp.bitTorrentClient.contentManager_51  TotalBytesDownloaded:vector  ETV
attr source ContentManager_TotalBytesDownloaded
attr title "Total of Bytes Downloaded, vector"
attr unit B
1776	209813 3945 4422303 213995552 36008.132226685322 36206.627217902752 96 32768 3145728 152567808 3.2162433099366e+14
vector 1832  BasicTopology.peer[25].bitTorrentApp.bitTorrentClient.contentManager_51  TotalBytesDownloaded:vector  ETV
attr source ContentManager_TotalBytesDownloaded
attr title "Total of Bytes Downloaded, vector"
attr unit B
1832	270327 4785 4466024 226571036 36008.176234672748 36247.411285418711 116 32768 3801088 222363648 5.659113333719e+14
vector 1879  BasicTopology.peer[31].bitTorrentApp.bitTorrentClient.contentManager_51  PiecesDownloaded:vector  ETV
attr source ContentManager_PieceDownloaded
attr title "Pieces Downloaded, vector"
1879	307322 421 4487593 131621714 36008.200289370621 36114.696487600368 12 0 11 66 506
vector 1881  BasicTopology.peer[31].bitTorrentApp.bitTorrentClient.contentManager_51  TotalBytesUploaded:vector  ETV
attr source ContentManager_TotalBytesUploaded
attr title "Total of Bytes Uploaded, vector"
attr unit B
1881	311627 9271 4522243 226428357 36008.227390068506 36245.182911488559 227 32768 7438336 847970304 4.2142541230899e+15
vector 1696  BasicTopology.peer[8].bitTorrentApp.bitTorrentClient.contentManager_51  TotalBytesDownloaded:vector  ETV
attr source ContentManager_TotalBytesDownloaded
attr title "Total of Bytes Downloaded, vector"
attr unit B
1696	121764 3924 4707606 215334453 36008.408795812278 36208.230722585028 96 32768 3145728 152567808 3.2162433099366e+14
vector 1655  BasicTopology.peer[3].bitTorrentApp.bitTorrentClient.contentManager_51  PiecesDownloaded:vector  ETV
attr source ContentManager_PieceDownloaded
attr title "Pieces Downloaded, vector"
1655	80629 425 4751884 174607651 36008.468972391446 36156.409381856028 12 0 11 66 506
vector 1657  BasicTopology.peer[3].bitTorrentApp.bitTorrentClient.contentManager_51  TotalBytesUploaded:vector  ETV
attr source ContentManager_TotalBytesUploaded
attr title "Total of Bytes Uploaded, vector"
attr unit B
1657	84979 6686 4771636 160105779 36008.485489494709 36141.262706070618 164 32768 5373952 443351040 1.593207381033e+15
vector 1952  BasicTopology.peer[40].bitTorrentApp.bitTorrentClient.contentManager_51  TotalBytesDownloaded:vector  ETV
attr source ContentManager_TotalBytesDownloaded
attr title "Total of Bytes Downloaded, vector"
attr unit B
1952	379377 3887 5116078 75687572 36008.857933199065 36069.771880337749 96 32768 3145728 152567808 3.2162433099366e+14
vector 1680  BasicTopology.peer[6].bitTorrentApp.bitTorrentClient.contentManager_51  TotalBytesDownloaded:vector  ETV
attr source ContentManager_TotalBytesDownloaded
attr title "Total of Bytes Downloaded, vector"
attr unit B
1680	106790 4257 5651040 204512103 36009.767244745894 36192.667247778705 104 32768 3407872 178913280 4.0842991501312e+14
vector 1768  BasicTopology.peer[17].bitTorrentApp.bitTorrentClient.contentManager_51  TotalBytesDownloaded:vector  ETV
attr source ContentManager_TotalBytesDownloaded
attr title "Total of Bytes Downloaded, vector"
attr unit B
1768	204604 4144 6220366 219941730 36010.27814391429 36216.957540190866 101 32768 3309568 168787968 3.7425378649702e+14
vector 1903  BasicTopology.peer[34].bitTorrentApp.bitTorrentClient.contentManager_51  PiecesDownloaded:vector  ETV
attr source ContentManager_PieceDownloaded
attr title "Pieces Downloaded, vector"
1903	338163 428 6228012 195322064 36010.287890851184 36180.66630378148 12 0 11 66 506
vector 1905  BasicTopology.peer[34].bitTorrentApp.bitTorrentClient.contentManager_51  TotalBytesUploaded:vector  ETV
attr source ContentManager_TotalBytesUploaded
attr title "Total of Bytes Uploaded, vector"
attr unit B
1905	342530 3950 6273615 123483580 36010.340565151822 36107.848024316722 98 32768 3211264 158957568 3.4203938429338e+14
vector 1831  BasicTopology.peer[25].bitTorrentApp.bitTorrentClient.contentManager_51  PiecesDownloaded:vector  ETV
attr source ContentManager_PieceDownloaded
attr title "Pieces Downloaded, vector"
1831	269901 426 6555385 226571036 36010.688960977763 36247.411285418711 12 0 11 66 506
vector 1833  BasicTopology.peer[25].bitTorrentApp.bitTorrentClient.contentManager_51  TotalBytesUploaded:vector  ETV
attr source ContentManager_TotalBytesUploaded
attr title "Total of Bytes Uploaded, vector"
attr unit B
1833	275112 928 6589455 9031127 36010.725434042795 36013.466021387693 24 32768 786432 9830400 5261334937600
vector 1744  BasicTopology.peer[14].bitTorrentApp.bitTorrentClient.contentManager_51  TotalBytesDownloaded:vector  ETV
attr source ContentManager_TotalBytesDownloaded
attr title "Total of Bytes Downloaded, vector"
attr unit B
1744	183901 4280 6634874 197857814 36010.775502743317 36183.889342814258 104 32768 3407872 178913280 4.0842991501312e+14
vector 1719  BasicTopology.peer[11].bitTorrentApp.bitTorrentClient.contentManager_51  PiecesDownloaded:vector  ETV
attr source ContentManager_PieceDownloaded
attr title "Pieces Downloaded, vector"
1719	149469 418 7465153 90620280 36011.813728398312 36081.442524041437 12 0 11 66 506
vector 1721  BasicTopology.peer[11].bitTorrentApp.bitTorrentClient.contentManager_51  TotalBytesUploaded:vector  ETV
attr source ContentManager_TotalBytesUploaded
attr title "Total of Bytes Uploaded, vector"
attr unit B
1721	153762 9178 7547947 195472950 36011.91500576881 36180.868148219011 225 32768 7372800 833126400 4.1040828432384e+15
vector 1712  BasicTopology.peer[10].bitTorrentApp.bitTorrentClient.contentManager_51  TotalBytesDownloaded:vector  ETV
attr source ContentManager_TotalBytesDownloaded
attr title "Total of Bytes Downloaded, vector"
attr unit B
1712	140163 3915 7654927 152942155 36012.060793497379 36134.380601202715 96 32768 3145728 152567808 3.2162433099366e+14
vector 1752  BasicTopology.peer[15].bitTorrentApp.bitTorrentClient.contentManager_51  TotalBytesDownloaded:vector  ETV
attr source ContentManager_TotalBytesDownloaded
attr title "Total of Bytes Downloaded, vector"
attr unit B
1752	192767 3935 7708795 167741722 36012.1375717062 36149.326646118967 96 32768 3145728 152567808 3.2162433099366e+14
vector 1672  BasicTopology.peer[5].bitTorrentApp.bitTorrentClient.contentManager_51  TotalBytesDownloaded:vector  ETV
attr source ContentManager_TotalBytesDownloaded
attr title "Total of Bytes Downloaded, vector"
attr unit B
1672	99842 3938 7726490 192658054 36012.168804583546 36177.541562245317 96 32768 3145728 152567808 3.2162433099366e+14
vector 1704  BasicTopology.peer[9].bitTorrentApp.bitTorrentClient.contentManager_51  TotalBytesDownloaded:vector  ETV
attr source ContentManager_TotalBytesDownloaded
attr title "Total of Bytes Downloaded, vector"
attr unit B
1704	130354 3928 7849561 191568355 36012.333769306442 36176.219290305507 96 32768 3145728 152567808 3.2162433099366e+14
vector 1679  BasicTopology.peer[6].bitTorrentApp.bitTorrentClient.contentManager_51  PiecesDownloaded:vector  ETV
attr source ContentManager_PieceDownloaded
attr title "Pieces Downloaded, vector"
1679	106364 426 8201924 204512103 36012.65036175381 36192.667247778705 12 0 11 66 506
vector 2016  BasicTopology.peer[48].bitTorrentApp.bitTorrentClient.contentManager_51  TotalBytesDownloaded:vector  ETV
attr source ContentManager_TotalBytesDownloaded
attr title "Total of Bytes Downloaded, vector"
attr unit B
2016	453308 3938 8544824 216821928 36012.992929785044 36210.848480804544 96 32768 3145728 152567808 3.2162433099366e+14
vector 1681  BasicTopology.peer[6].bitTorrentApp.bitTorrentClient.contentManager_51  TotalBytesUploaded:vector  ETV
attr source ContentManager_TotalBytesUploaded
attr title "Total of Bytes Uploaded, vector"
attr unit B
1681	111047 5221 8846891 179265254 36013.237627774301 36161.383998492567 128 32768 4194304 270532608 7.5941893740954e+14
vector 2024  BasicTopology.peer[49].bitTorrentApp.bitTorrentClient.contentManager_51  TotalBytesDownloaded:vector  ETV
attr source ContentManager_TotalBytesDownloaded
attr title "Total of Bytes Downloaded, vector"
attr unit B
2024	461719 4456 9401145 218974612 36013.925173477839 36214.869838861316 108 32768 3538944 192872448 4.571498765353e+14
vector 1688  BasicTopology.peer[7].bitTorrentApp.bitTorrentClient.contentManager_51  TotalBytesDownloaded:vector  ETV
attr source ContentManager_TotalBytesDownloaded
attr title "Total of Bytes Downloaded, vector"
attr unit B
1688	116698 3946 9457875 219369529 36013.980805634515 36215.829705733786 96 32768 3145728 152567808 3.2162433099366e+14
vector 2000  BasicTopology.peer[46].bitTorrentApp.bitTorrentClient.contentManager_51  TotalBytesDownloaded:vector  ETV
attr source ContentManager_TotalBytesDownloaded
attr title "Total of Bytes Downloaded, vector"
attr unit B