version 2
run Test-12-20200526-12:15:08-5264
attr configname Test
attr datetime 20200526-12:15:08
attr experiment "\"Simulation Test\""
attr inifile BasicConfig.ini
attr iterationvars ""
attr iterationvars2 $repetition=12
attr measurement "\"Peers: $peers, Rate: $rate\""
attr network BasicTopology
attr processid 5264
attr repetition 12
attr replication #12
attr resultdir results
attr runnumber 12
attr seedset 12

vector 3  BasicTopology.peer[1].bitTorrentApp.bitTorrentClient  DownloadComplete_Test:vector  ETV
attr source  BitTorrentClient_DownloadComplete_Test
attr title  "Descargas completas (prueba), vector"
vector 5  BasicTopology.peer[2].bitTorrentApp.bitTorrentClient  DownloadComplete_Test:vector  ETV
attr source  BitTorrentClient_DownloadComplete_Test
attr title  "Descargas completas (prueba), vector"
vector 7  BasicTopology.peer[3].bitTorrentApp.bitTorrentClient  DownloadComplete_Test:vector  ETV
attr source  BitTorrentClient_DownloadComplete_Test
attr title  "Descargas completas (prueba), vector"
vector 9  BasicTopology.peer[4].bitTorrentApp.bitTorrentClient  DownloadComplete_Test:vector  ETV
attr source  BitTorrentClient_DownloadComplete_Test
attr title  "Descargas completas (prueba), vector"
vector 11  BasicTopology.peer[5].bitTorrentApp.bitTorrentClient  DownloadComplete_Test:vector  ETV
attr source  BitTorrentClient_DownloadComplete_Test
attr title  "Descargas completas (prueba), vector"
vector 13  BasicTopology.peer[6].bitTorrentApp.bitTorrentClient  DownloadComplete_Test:vector  ETV
attr source  BitTorrentClient_DownloadComplete_Test
attr title  "Descargas completas (prueba), vector"
vector 15  BasicTopology.peer[7].bitTorrentApp.bitTorrentClient  DownloadComplete_Test:vector  ETV
attr source  BitTorrentClient_DownloadComplete_Test
attr title  "Descargas completas (prueba), vector"
vector 17  BasicTopology.peer[8].bitTorrentApp.bitTorrentClient  DownloadComplete_Test:vector  ETV
attr source  BitTorrentClient_DownloadComplete_Test
attr title  "Descargas completas (prueba), vector"
vector 19  BasicTopology.peer[9].bitTorrentApp.bitTorrentClient  DownloadComplete_Test:vector  ETV
attr source  BitTorrentClient_DownloadComplete_Test
attr title  "Descargas completas (prueba), vector"
vector 21  BasicTopology.peer[10].bitTorrentApp.bitTorrentClient  DownloadComplete_Test:vector  ETV
attr source  BitTorrentClient_DownloadComplete_Test
attr title  "Descargas completas (prueba), vector"
vector 23  BasicTopology.peer[11].bitTorrentApp.bitTorrentClient  DownloadComplete_Test:vector  ETV
attr source  BitTorrentClient_DownloadComplete_Test
attr title  "Descargas completas (prueba), vector"
vector 25  BasicTopology.peer[12].bitTorrentApp.bitTorrentClient  DownloadComplete_Test:vector  ETV
attr source  BitTorrentClient_DownloadComplete_Test
attr title  "Descargas completas (prueba), vector"
vector 27  BasicTopology.peer[13].bitTorrentApp.bitTorrentClient  DownloadComplete_Test:vector  ETV
attr source  BitTorrentClient_DownloadComplete_Test
attr title  "Descargas completas (prueba), vector"
vector 29  BasicTopology.peer[14].bitTorrentApp.bitTorrentClient  DownloadComplete_Test:vector  ETV
attr source  BitTorrentClient_DownloadComplete_Test
attr title  "Descargas completas (prueba), vector"
vector 31  BasicTopology.peer[15].bitTorrentApp.bitTorrentClient  DownloadComplete_Test:vector  ETV
attr source  BitTorrentClient_DownloadComplete_Test
attr title  "Descargas completas (prueba), vector"
vector 33  BasicTopology.peer[16].bitTorrentApp.bitTorrentClient  DownloadComplete_Test:vector  ETV
attr source  BitTorrentClient_DownloadComplete_Test
attr title  "Descargas completas (prueba), vector"
vector 35  BasicTopology.peer[17].bitTorrentApp.bitTorrentClient  DownloadComplete_Test:vector  ETV
attr source  BitTorrentClient_DownloadComplete_Test
attr title  "Descargas completas (prueba), vector"
vector 37  BasicTopology.peer[18].bitTorrentApp.bitTorrentClient  DownloadComplete_Test:vector  ETV
attr source  BitTorrentClient_DownloadComplete_Test
attr title  "Descargas completas (prueba), vector"
vector 39  BasicTopology.peer[19].bitTorrentApp.bitTorrentClient  DownloadComplete_Test:vector  ETV
attr source  BitTorrentClient_DownloadComplete_Test
attr title  "Descargas completas (prueba), vector"
vector 41  BasicTopology.peer[20].bitTorrentApp.bitTorrentClient  DownloadComplete_Test:vector  ETV
attr source  BitTorrentClient_DownloadComplete_Test
attr title  "Descargas completas (prueba), vector"
vector 43  BasicTopology.peer[21].bitTorrentApp.bitTorrentClient  DownloadComplete_Test:vector  ETV
attr source  BitTorrentClient_DownloadComplete_Test
attr title  "Descargas completas (prueba), vector"
vector 45  BasicTopology.peer[22].bitTorrentApp.bitTorrentClient  DownloadComplete_Test:vector  ETV
attr source  BitTorrentClient_DownloadComplete_Test
attr title  "Descargas completas (prueba), vector"
vector 47  BasicTopology.peer[23].bitTorrentApp.bitTorrentClient  DownloadComplete_Test:vector  ETV
attr source  BitTorrentClient_DownloadComplete_Test
attr title  "Descargas completas (prueba), vector"
vector 49  BasicTopology.peer[24].bitTorrentApp.bitTorrentClient  DownloadComplete_Test:vector  ETV
attr source  BitTorrentClient_DownloadComplete_Test
attr title  "Descargas completas (prueba), vector"
vector 833  BasicTopology.peer[0].bitTorrentApp.bitTorrentClient.contentManager_26  TotalBytesUploaded:vector  ETV
attr source  ContentManager_TotalBytesUploaded
attr title  "Total of Bytes Uploaded, vector"
attr unit  B
vector 920  BasicTopology.peer[11].bitTorrentApp.bitTorrentClient.contentManager_26  TotalBytesDownloaded:vector  ETV
attr source  ContentManager_TotalBytesDownloaded
attr title  "Total of Bytes Downloaded, vector"
attr unit  B
vector 919  BasicTopology.peer[11].bitTorrentApp.bitTorrentClient.contentManager_26  PiecesDownloaded:vector  ETV
attr source  ContentManager_PieceDownloaded
attr title  "Pieces Downloaded, vector"
vector 921  BasicTopology.peer[11].bitTorrentApp.bitTorrentClient.contentManager_26  TotalBytesUploaded:vector  ETV
attr source  ContentManager_TotalBytesUploaded
attr title  "Total of Bytes Uploaded, vector"
attr unit  B
vector 912  BasicTopology.peer[10].bitTorrentApp.bitTorrentClient.contentManager_26  TotalBytesDownloaded:vector  ETV
attr source  ContentManager_TotalBytesDownloaded
attr title  "Total of Bytes Downloaded, vector"
attr unit  B
vector 840  BasicTopology.peer[1].bitTorrentApp.bitTorrentClient.contentManager_26  TotalBytesDownloaded:vector  ETV
attr source  ContentManager_TotalBytesDownloaded
attr title  "Total of Bytes Downloaded, vector"
attr unit  B
vector 1024  BasicTopology.peer[24].bitTorrentApp.bitTorrentClient.contentManager_26  TotalBytesDownloaded:vector  ETV
attr source  ContentManager_TotalBytesDownloaded
attr title  "Total of Bytes Downloaded, vector"
attr unit  B
vector 872  BasicTopology.peer[5].bitTorrentApp.bitTorrentClient.contentManager_26  TotalBytesDownloaded:vector  ETV
attr source  ContentManager_TotalBytesDownloaded
attr title  "Total of Bytes Downloaded, vector"
attr unit  B
vector 911  BasicTopology.peer[10].bitTorrentApp.bitTorrentClient.contentManager_26  PiecesDownloaded:vector  ETV
attr source  ContentManager_PieceDownloaded
attr title  "Pieces Downloaded, vector"
vector 913  BasicTopology.peer[10].bitTorrentApp.bitTorrentClient.contentManager_26  TotalBytesUploaded:vector  ETV
attr source  ContentManager_TotalBytesUploaded
attr title  "Total of Bytes Uploaded, vector"
attr unit  B
vector 848  BasicTopology.peer[2].bitTorrentApp.bitTorrentClient.contentManager_26  TotalBytesDownloaded:vector  ETV
attr source  ContentManager_TotalBytesDownloaded
attr title  "Total of Bytes Downloaded, vector"
attr unit  B
vector 904  BasicTopology.peer[9].bitTorrentApp.bitTorrentClient.contentManager_26  TotalBytesDownloaded:vector  ETV
attr source  ContentManager_TotalBytesDownloaded
attr title  "Total of Bytes Downloaded, vector"
attr unit  B
vector 871  BasicTopology.peer[5].bitTorrentApp.bitTorrentClient.contentManager_26  PiecesDownloaded:vector  ETV
attr source  ContentManager_PieceDownloaded
attr title  "Pieces Downloaded, vector"
vector 873  BasicTopology.peer[5].bitTorrentApp.bitTorrentClient.contentManager_26  TotalBytesUploaded:vector  ETV
attr source  ContentManager_TotalBytesUploaded
attr title  "Total of Bytes Uploaded, vector"
attr unit  B
vector 944  BasicTopology.peer[14].bitTorrentApp.bitTorrentClient.contentManager_26  TotalBytesDownloaded:vector  ETV
attr source  ContentManager_TotalBytesDownloaded
attr title  "Total of Bytes Downloaded, vector"
attr unit  B
vector 847  BasicTopology.peer[2].bitTorrentApp.bitTorrentClient.contentManager_26  PiecesDownloaded:vector  ETV
attr source  ContentManager_PieceDownloaded
attr title  "Pieces Downloaded, vector"
vector 1023  BasicTopology.peer[24].bitTorrentApp.bitTorrentClient.contentManager_26  PiecesDownloaded:vector  ETV
attr source  ContentManager_PieceDownloaded
attr title  "Pieces Downloaded, vector"
vector 849  BasicTopology.peer[2].bitTorrentApp.bitTorrentClient.contentManager_26  TotalBytesUploaded:vector  ETV
attr source  ContentManager_TotalBytesUploaded
attr title  "Total of Bytes Uploaded, vector"
attr unit  B
vector 888  BasicTopology.peer[7].bitTorrentApp.bitTorrentClient.contentManager_26  TotalBytesDownloaded:vector  ETV
attr source  ContentManager_TotalBytesDownloaded
attr title  "Total of Bytes Downloaded, vector"
attr unit  B
vector 1025  BasicTopology.peer[24].bitTorrentApp.bitTorrentClient.contentManager_26  TotalBytesUploaded:vector  ETV
attr source  ContentManager_TotalBytesUploaded
attr title  "Total of Bytes Uploaded, vector"
attr unit  B
vector 984  BasicTopology.peer[19].bitTorrentApp.bitTorrentClient.contentManager_26  TotalBytesDownloaded:vector  ETV
attr source  ContentManager_TotalBytesDownloaded
attr title  "Total of Bytes Downloaded, vector"
attr unit  B
vector 864  BasicTopology.peer[4].bitTorrentApp.bitTorrentClient.contentManager_26  TotalBytesDownloaded:vector  ETV
attr source  ContentManager_TotalBytesDownloaded
attr title  "Total of Bytes Downloaded, vector"
attr unit  B
vector 968  BasicTopology.peer[17].bitTorrentApp.bitTorrentClient.contentManager_26  TotalBytesDownloaded:vector  ETV
attr source  ContentManager_TotalBytesDownloaded
attr title  "Total of Bytes Downloaded, vector"
attr unit  B
vector 928  BasicTopology.peer[12].bitTorrentApp.bitTorrentClient.contentManager_26  TotalBytesDownloaded:vector  ETV
attr source  ContentManager_TotalBytesDownloaded
attr title  "Total of Bytes Downloaded, vector"
attr unit  B
vector 983  BasicTopology.peer[19].bitTorrentApp.bitTorrentClient.contentManager_26  PiecesDownloaded:vector  ETV
attr source  ContentManager_PieceDownloaded
attr title  "Pieces Downloaded, vector"
vector 985  BasicTopology.peer[19].bitTorrentApp.bitTorrentClient.contentManager_26  TotalBytesUploaded:vector  ETV
attr source  ContentManager_TotalBytesUploaded
attr title  "Total of Bytes Uploaded, vector"
attr unit  B
vector 880  BasicTopology.peer[6].bitTorrentApp.bitTorrentClient.contentManager_26  TotalBytesDownloaded:vector  ETV
attr source  ContentManager_TotalBytesDownloaded
attr title  "Total of Bytes Downloaded, vector"
attr unit  B
vector 927  BasicTopology.peer[12].bitTorrentApp.bitTorrentClient.contentManager_26  PiecesDownloaded:vector  ETV
attr source  ContentManager_PieceDownloaded
attr title  "Pieces Downloaded, vector"
vector 929  BasicTopology.peer[12].bitTorrentApp.bitTorrentClient.contentManager_26  TotalBytesUploaded:vector  ETV
attr source  ContentManager_TotalBytesUploaded
attr title  "Total of Bytes Uploaded, vector"
attr unit  B
vector 887  BasicTopology.peer[7].bitTorrentApp.bitTorrentClient.contentManager_26  PiecesDownloaded:vector  ETV
attr source  ContentManager_PieceDownloaded
attr title  "Pieces Downloaded, vector"
vector 856  BasicTopology.peer[3].bitTorrentApp.bitTorrentClient.contentManager_26  TotalBytesDownloaded:vector  ETV
attr source  ContentManager_TotalBytesDownloaded
attr title  "Total of Bytes Downloaded, vector"
attr unit  B
vector 936  BasicTopology.peer[13].bitTorrentApp.bitTorrentClient.contentManager_26  TotalBytesDownloaded:vector  ETV
attr source  ContentManager_TotalBytesDownloaded
attr title  "Total of Bytes Downloaded, vector"
attr unit  B
vector 879  BasicTopology.peer[6].bitTorrentApp.bitTorrentClient.contentManager_26  PiecesDownloaded:vector  ETV
attr source  ContentManager_PieceDownloaded
attr title  "Pieces Downloaded, vector"
vector 881  BasicTopology.peer[6].bitTorrentApp.bitTorrentClient.contentManager_26  TotalBytesUploaded:vector  ETV
attr source  ContentManager_TotalBytesUploaded
attr title  "Total of Bytes Uploaded, vector"
attr unit  B
vector 896  BasicTopology.peer[8].bitTorrentApp.bitTorrentClient.contentManager_26  TotalBytesDownloaded:vector  ETV
attr source  ContentManager_TotalBytesDownloaded
attr title  "Total of Bytes Downloaded, vector"
attr unit  B
vector 839  BasicTopology.peer[1].bitTorrentApp.bitTorrentClient.contentManager_26  PiecesDownloaded:vector  ETV
attr source  ContentManager_PieceDownloaded
attr title  "Pieces Downloaded, vector"
vector 889  BasicTopology.peer[7].bitTorrentApp.bitTorrentClient.contentManager_26  TotalBytesUploaded:vector  ETV
attr source  ContentManager_TotalBytesUploaded
attr title  "Total of Bytes Uploaded, vector"
attr unit  B
vector 992  BasicTopology.peer[20].bitTorrentApp.bitTorrentClient.contentManager_26  TotalBytesDownloaded:vector  ETV
attr source  ContentManager_TotalBytesDownloaded
attr title  "Total of Bytes Downloaded, vector"
attr unit  B
vector 976  BasicTopology.peer[18].bitTorrentApp.bitTorrentClient.contentManager_26  TotalBytesDownloaded:vector  ETV
attr source  ContentManager_TotalBytesDownloaded
attr title  "Total of Bytes Downloaded, vector"
attr unit  B
vector 1008  BasicTopology.peer[22].bitTorrentApp.bitTorrentClient.contentManager_26  TotalBytesDownloaded:vector  ETV
attr source  ContentManager_TotalBytesDownloaded
attr title  "Total of Bytes Downloaded, vector"
attr unit  B
vector 1016  BasicTopology.peer[23].bitTorrentApp.bitTorrentClient.contentManager_26  TotalBytesDownloaded:vector  ETV
attr source  ContentManager_TotalBytesDownloaded
attr title  "Total of Bytes Downloaded, vector"
attr unit  B
vector 975  BasicTopology.peer[18].bitTorrentApp.bitTorrentClient.contentManager_26  PiecesDownloaded:vector  ETV
attr source  ContentManager_PieceDownloaded
attr title  "Pieces Downloaded, vector"
vector 841  BasicTopology.peer[1].bitTorrentApp.bitTorrentClient.contentManager_26  TotalBytesUploaded:vector  ETV
attr source  ContentManager_TotalBytesUploaded
attr title  "Total of Bytes Uploaded, vector"
attr unit  B
vector 1000  BasicTopology.peer[21].bitTorrentApp.bitTorrentClient.contentManager_26  TotalBytesDownloaded:vector  ETV
attr source  ContentManager_TotalBytesDownloaded
attr title  "Total of Bytes Downloaded, vector"
attr unit  B
vector 943  BasicTopology.peer[14].bitTorrentApp.bitTorrentClient.contentManager_26  PiecesDownloaded:vector  ETV
attr source  ContentManager_PieceDownloaded
attr title  "Pieces Downloaded, vector"
vector 895  BasicTopology.peer[8].bitTorrentApp.bitTorrentClient.contentManager_26  PiecesDownloaded:vector  ETV
attr source  ContentManager_PieceDownloaded
attr title  "Pieces Downloaded, vector"
vector 897  BasicTopology.peer[8].bitTorrentApp.bitTorrentClient.contentManager_26  TotalBytesUploaded:vector  ETV
attr source  ContentManager_TotalBytesUploaded
attr title  "Total of Bytes Uploaded, vector"
attr unit  B
vector 903  BasicTopology.peer[9].bitTorrentApp.bitTorrentClient.contentManager_26  PiecesDownloaded:vector  ETV
attr source  ContentManager_PieceDownloaded
attr title  "Pieces Downloaded, vector"
vector 863  BasicTopology.peer[4].bitTorrentApp.bitTorrentClient.contentManager_26  PiecesDownloaded:vector  ETV
attr source  ContentManager_PieceDownloaded
attr title  "Pieces Downloaded, vector"
vector 865  BasicTopology.peer[4].bitTorrentApp.bitTorrentClient.contentManager_26  TotalBytesUploaded:vector  ETV
attr source  ContentManager_TotalBytesUploaded
attr title  "Total of Bytes Uploaded, vector"
attr unit  B
vector 855  BasicTopology.peer[3].bitTorrentApp.bitTorrentClient.contentManager_26  PiecesDownloaded:vector  ETV
attr source  ContentManager_PieceDownloaded
attr title  "Pieces Downloaded, vector"
vector 857  BasicTopology.peer[3].bitTorrentApp.bitTorrentClient.contentManager_26  TotalBytesUploaded:vector  ETV
attr source  ContentManager_TotalBytesUploaded
attr title  "Total of Bytes Uploaded, vector"
attr unit  B
vector 952  BasicTopology.peer[15].bitTorrentApp.bitTorrentClient.contentManager_26  TotalBytesDownloaded:vector  ETV
attr source  ContentManager_TotalBytesDownloaded
attr title  "Total of Bytes Downloaded, vector"
attr unit  B
vector 905  BasicTopology.peer[9].bitTorrentApp.bitTorrentClient.contentManager_26  TotalBytesUploaded:vector  ETV
attr source  ContentManager_TotalBytesUploaded
attr title  "Total of Bytes Uploaded, vector"
attr unit  B
vector 1015  BasicTopology.peer[23].bitTorrentApp.bitTorrentClient.contentManager_26  PiecesDownloaded:vector  ETV
attr source  ContentManager_PieceDownloaded
attr title  "Pieces Downloaded, vector"
vector 1017  BasicTopology.peer[23].bitTorrentApp.bitTorrentClient.contentManager_26  TotalBytesUploaded:vector  ETV
attr source  ContentManager_TotalBytesUploaded
attr title  "Total of Bytes Uploaded, vector"
attr unit  B
vector 935  BasicTopology.peer[13].bitTorrentApp.bitTorrentClient.contentManager_26  PiecesDownloaded:vector  ETV
attr source  ContentManager_PieceDownloaded
attr title  "Pieces Downloaded, vector"
vector 967  BasicTopology.peer[17].bitTorrentApp.bitTorrentClient.contentManager_26  PiecesDownloaded:vector  ETV
attr source  ContentManager_PieceDownloaded
attr title  "Pieces Downloaded, vector"
vector 960  BasicTopology.peer[16].bitTorrentApp.bitTorrentClient.contentManager_26  TotalBytesDownloaded:vector  ETV
attr source  ContentManager_TotalBytesDownloaded
attr title  "Total of Bytes Downloaded, vector"
attr unit  B
vector 1007  BasicTopology.peer[22].bitTorrentApp.bitTorrentClient.contentManager_26  PiecesDownloaded:vector  ETV
attr source  ContentManager_PieceDownloaded
attr title  "Pieces Downloaded, vector"
vector 1009  BasicTopology.peer[22].bitTorrentApp.bitTorrentClient.contentManager_26  TotalBytesUploaded:vector  ETV
attr source  ContentManager_TotalBytesUploaded
attr title  "Total of Bytes Uploaded, vector"
attr unit  B
vector 999  BasicTopology.peer[21].bitTorrentApp.bitTorrentClient.contentManager_26  PiecesDownloaded:vector  ETV
attr source  ContentManager_PieceDownloaded
attr title  "Pieces Downloaded, vector"
vector 977  BasicTopology.peer[18].bitTorrentApp.bitTorrentClient.contentManager_26  TotalBytesUploaded:vector  ETV
attr source  ContentManager_TotalBytesUploaded
attr title  "Total of Bytes Uploaded, vector"
attr unit  B
vector 1001  BasicTopology.peer[21].bitTorrentApp.bitTorrentClient.contentManager_26  TotalBytesUploaded:vector  ETV
attr source  ContentManager_TotalBytesUploaded
attr title  "Total of Bytes Uploaded, vector"
attr unit  B
vector 991  BasicTopology.peer[20].bitTorrentApp.bitTorrentClient.contentManager_26  PiecesDownloaded:vector  ETV
attr source  ContentManager_PieceDownloaded
attr title  "Pieces Downloaded, vector"
vector 951  BasicTopology.peer[15].bitTorrentApp.bitTorrentClient.contentManager_26  PiecesDownloaded:vector  ETV
attr source  ContentManager_PieceDownloaded
attr title  "Pieces Downloaded, vector"
vector 993  BasicTopology.peer[20].bitTorrentApp.bitTorrentClient.contentManager_26  TotalBytesUploaded:vector  ETV
attr source  ContentManager_TotalBytesUploaded
attr title  "Total of Bytes Uploaded, vector"
attr unit  B
vector 959  BasicTopology.peer[16].bitTorrentApp.bitTorrentClient.contentManager_26  PiecesDownloaded:vector  ETV
attr source  ContentManager_PieceDownloaded
attr title  "Pieces Downloaded, vector"
vector 953  BasicTopology.peer[15].bitTorrentApp.bitTorrentClient.contentManager_26  TotalBytesUploaded:vector  ETV
attr source  ContentManager_TotalBytesUploaded
attr title  "Total of Bytes Uploaded, vector"
attr unit  B
vector 937  BasicTopology.peer[13].bitTorrentApp.bitTorrentClient.contentManager_26  TotalBytesUploaded:vector  ETV
attr source  ContentManager_TotalBytesUploaded
attr title  "Total of Bytes Uploaded, vector"
attr unit  B
vector 969  BasicTopology.peer[17].bitTorrentApp.bitTorrentClient.contentManager_26  TotalBytesUploaded:vector  ETV
attr source  ContentManager_TotalBytesUploaded
attr title  "Total of Bytes Uploaded, vector"
attr unit  B
vector 945  BasicTopology.peer[14].bitTorrentApp.bitTorrentClient.contentManager_26  TotalBytesUploaded:vector  ETV
attr source  ContentManager_TotalBytesUploaded
attr title  "Total of Bytes Uploaded, vector"
attr unit  B
3	85	36001	36001
3	45619096	36076.830316801182	36076.830316801
5	86	36001	36001
5	60263056	36106.007188552698	36106.007188553
7	87	36001	36001
7	46830695	36078.970095641514	36078.970095642
9	88	36001	36001
9	60327918	36106.128599554842	36106.128599555
11	89	36001	36001
11	83411906	36307.529597029981	36307.52959703
13	90	36001	36001
13	83112533	36306.428736369533	36306.42873637
15	91	36001	36001
15	75098368	36139.818628548862	36139.818628549
17	92	36001	36001
17	68341572	36122.669308389717	36122.66930839
19	93	36001	36001
19	78649808	36150.593141830735	36150.593141831
21	94	36001	36001
21	68942624	36123.870008296698	36123.870008297
23	95	36001	36001
23	42616104	36071.298114579594	36071.29811458
25	96	36001	36001
25	76981969	36144.11580103272	36144.115801033
27	97	36001	36001
27	72374508	36132.261583832788	36132.261583833
29	98	36001	36001
29	78167018	36147.550208947587	36147.550208948
31	99	36001	36001
31	75433739	36140.406532025185	36140.406532025
33	100	36001	36001
33	77864876	36146.472831284991	36146.472831285
35	101	36001	36001
35	73614409	36136.589162831816	36136.589162832
37	102	36001	36001
37	71346396	36129.886301270255	36129.88630127
39	103	36001	36001
39	78338859	36147.956599553179	36147.956599553
41	104	36001	36001
41	81697993	36302.476103617127	36302.476103617
43	105	36001	36001
43	77355382	36144.816758607416	36144.816758607
45	106	36001	36001
45	48447961	36082.101816115104	36082.101816115
47	107	36001	36001
47	70937458	36128.661646026218	36128.661646026
49	108	36001	36001
49	72934490	36134.34762513941	36134.347625139
833	297950	36001.592961012134	32768
833	300699	36001.598401009976	65536
833	301250	36001.598941260111	98304
833	312584	36001.62596877293	131072
833	316443	36001.636216134401	163840
833	338781	36001.662457512835	196608
833	344436	36001.669852437729	229376
833	344546	36001.670427939407	262144
833	344805	36001.670945481408	294912
833	356699	36001.684684830841	327680
833	358027	36001.686326507663	360448
833	392463	36001.764247530964	393216
833	396067	36001.775121353417	425984
833	412204	36001.822559456867	458752
833	569824	36002.601054426482	491520
833	572854	36002.611791880598	524288
833	574650	36002.61638953523	557056
833	574696	36002.616529026535	589824
833	592805	36002.64824457555	622592
833	594779	36002.652385597704	655360
833	600085	36002.66023141592	688128
833	609361	36002.67365216936	720896
833	612702	36002.677799283144	753664
833	612758	36002.677915447917	786432
833	622791	36002.869566077802	819200
833	654670	36002.964344945422	851968
833	663055	36002.988731194113	884736
833	701392	36003.058802343474	917504
833	703367	36003.065171646989	950272
833	703455	36003.065517678968	983040
833	703557	36003.065837560042	1015808
833	708652	36003.080463744199	1048576
833	715430	36003.096349898797	1081344
833	715612	36003.09694719278	1114112
833	715857	36003.097436166932	1146880
833	722429	36003.114950932033	1179648
833	723750	36003.119179688016	1212416
833	967659	36004.066459850625	1245184
833	983129	36004.083014937486	1277952
833	995714	36004.097051356764	1310720
833	996473	36004.098331913479	1343488
833	997201	36004.099290649624	1376256
833	1013824	36004.122532111469	1409024
833	1020146	36004.128342517223	1441792
833	1025545	36004.132925287017	1474560
833	1048781	36004.154798108979	1507328
833	1050529	36004.156563479726	1540096
833	1064796	36004.18725519175	1572864
833	1064951	36004.187725455346	1605632
833	1069989	36004.200041571117	1638400
833	1073679	36004.210994519691	1671168
833	1074575	36004.213694769966	1703936
833	1074803	36004.217181657927	1736704
833	1074805	36004.217614476153	1769472
833	1074808	36004.220092233086	1802240
833	1074810	36004.230153127383	1835008
833	1074812	36004.244101230013	1867776
833	1074814	36004.244476175246	1900544
833	1085446	36004.455701362425	1933312
833	1118795	36004.514781550259	1966080
833	1142494	36004.539134691129	1998848
833	1187395	36004.593169450703	2031616
833	1191807	36004.608331608078	2064384
833	1444270	36005.284669900957	2097152
833	1460643	36005.333846106874	2129920
833	1477604	36005.38530125735	2162688
833	1489268	36005.42242013805	2195456
833	1516837	36005.495531102331	2228224
833	1538055	36005.550388568713	2260992
833	1585476	36005.651214008427	2293760
833	1585810	36005.652041743993	2326528
833	1862390	36006.456973325857	2359296
833	1871734	36006.484454739698	2392064
833	1919081	36006.645580965957	2424832
833	1946038	36006.707624168077	2457600
833	1958001	36006.737055838952	2490368
833	1969307	36006.768497016758	2523136
833	1999295	36006.842309034709	2555904
833	2453430	36007.593207727727	2588672
833	2503582	36007.695812269149	2621440
833	2563657	36007.830868720698	2654208
833	2587330	36007.887155221889	2686976
833	2628861	36007.997311846077	2719744
833	2678805	36008.137185107228	2752512
833	2697689	36008.209134265078	2785280
833	2711268	36008.262224621556	2818048
833	2745447	36008.366613764251	2850816
833	2774497	36008.453670047348	2883584
833	2846240	36008.577494774549	2916352
833	2992486	36008.831405044315	2949120
833	3022206	36008.878815676091	2981888
833	3054035	36008.926427627676	3014656
833	3464296	36009.720180980116	3047424
833	3608963	36009.94441356382	3080192
833	4669946	36011.796973841293	3112960
833	4716640	36011.915824808268	3145728
833	5264818	36013.002585058266	3178496
833	5271358	36013.015220335189	3211264
833	5359841	36013.112355008161	3244032
833	5396955	36013.161057143122	3276800
833	5407189	36013.174838743753	3309568
833	5435326	36013.215962332363	3342336
833	5459906	36013.250923441534	3375104
833	5495886	36013.293035107086	3407872
833	5937410	36014.065800358393	3440640
833	5976753	36014.123665662612	3473408
833	6039488	36014.21810141338	3506176
833	6061733	36014.254028872829	3538944
833	6624972	36015.191467260228	3571712
833	6672009	36015.257276594128	3604480
833	6755896	36015.370929567759	3637248
833	7430110	36016.362365067925	3670016
833	7466237	36016.411196084422	3702784
833	7496848	36016.45454313751	3735552
833	7536065	36016.511396729768	3768320
833	7558641	36016.555368901625	3801088
833	8018567	36017.232627607886	3833856
833	8148663	36017.403292699968	3866624
833	8245443	36017.515070433905	3899392
833	8278419	36017.551345611513	3932160
833	8354781	36017.645086009821	3964928
833	8362682	36017.658194143514	3997696
833	8393268	36017.722214567033	4030464
833	8406321	36017.757116213959	4063232
833	8481864	36017.879141387384	4096000
833	8504554	36017.911998448057	4128768
833	8525494	36017.943117252676	4161536
833	8571695	36018.002087675295	4194304
833	8609920	36018.056742925211	4227072
833	9190112	36018.879328424501	4259840
833	9295758	36019.01121529839	4292608
833	9437062	36019.184636751324	4325376
833	9463064	36019.214041804502	4358144
833	9485107	36019.239422435339	4390912
833	9512742	36019.277241137489	4423680
833	10375963	36020.611841627937	4456448
833	10516198	36020.788386491857	4489216
833	11033418	36021.578456378287	4521984
833	11033959	36021.579176652596	4554752
833	11034983	36021.580359416351	4587520
833	11056979	36021.611230026295	4620288
833	11071168	36021.631910174194	4653056
833	11071870	36021.632816679251	4685824
833	11072321	36021.633470853178	4718592
833	11083032	36021.648604441804	4751360
833	11083460	36021.649261418737	4784128
833	11092441	36021.662091852854	4816896
833	12104699	36022.929005162304	4849664
833	12238237	36023.101112498941	4882432
833	12274727	36023.157082457692	4915200
833	13602694	36025.249783587914	4947968
833	13643716	36025.306347252654	4980736
833	14025395	36025.879683086039	5013504
833	14093613	36026.004595216137	5046272
833	14154046	36026.115551662552	5079040
833	14296033	36026.308716463229	5111808
833	14422452	36026.482022996129	5144576
833	15066948	36027.514721980776	5177344
833	15840708	36028.689230749826	5210112
833	16168694	36029.244257472484	5242880
833	16262392	36029.432341582262	5275648
833	16305299	36029.497318953367	5308416
833	16350226	36029.568766933382	5341184
833	16428692	36029.691285352521	5373952
833	16593205	36029.904269341863	5406720
833	16641301	36029.968749875131	5439488
833	16680907	36030.027144822471	5472256
833	17111045	36030.693643281786	5505024
833	17158633	36030.771784741878	5537792
833	17663411	36031.588378305482	5570560
833	17693601	36031.630577014151	5603328
833	17696154	36031.634711346079	5636096
833	17696975	36031.635953867347	5668864
833	17700173	36031.640879946528	5701632
833	17700263	36031.640967780308	5734400
833	17701647	36031.642423932533	5767168
833	17702996	36031.643920739292	5799936
833	17704180	36031.645734619149	5832704
833	17704326	36031.646128493964	5865472
833	18053161	36032.176909622742	5898240
833	18087097	36032.222119085541	5931008
833	18146326	36032.31713464794	5963776
833	18259488	36032.472525540144	5996544
833	18368082	36032.620025506304	6029312
833	19175520	36033.831309127399	6062080
833	19860559	36034.810937101161	6094848
833	20019132	36035.040476748791	6127616
833	20654545	36035.952265681619	6160384
833	20654686	36035.952383293336	6193152
833	20657585	36035.957758643174	6225920
833	20671153	36035.981223600623	6258688
833	20676403	36035.994245033425	6291456
833	20761691	36036.143814107237	6324224
833	21022600	36036.566769004069	6356992
833	21104796	36036.685581129648	6389760
833	21166156	36036.768635343404	6422528