version 2
run Test-5-20200526-12:14:16-5192
attr configname Test
attr datetime 20200526-12:14:16
attr experiment "\"Simulation Test\""
attr inifile BasicConfig.ini
attr iterationvars ""
attr iterationvars2 $repetition=5
attr measurement "\"Peers: $peers, Rate: $rate\""
attr network BasicTopology
attr processid 5192
attr repetition 5
attr replication #5
attr resultdir results
attr runnumber 5
attr seedset 5

vector 3  BasicTopology.peer[1].bitTorrentApp.bitTorrentClient  DownloadComplete_Test:vector  ETV
attr source  BitTorrentClient_DownloadComplete_Test
attr title  "Descargas completas (prueba), vector"
vector 5  BasicTopology.peer[2].bitTorrentApp.bitTorrentClient  DownloadComplete_Test:vector  ETV
attr source  BitTorrentClient_DownloadComplete_Test
attr title  "Descargas completas (prueba), vector"
vector 7  BasicTopology.peer[3].bitTorrentApp.bitTorrentClient  DownloadComplete_Test:vector  ETV
attr source  BitTorrentClient_DownloadComplete_Test
attr title  "Descargas completas (prueba), vector"
vector 9  BasicTopology.peer[4].bitTorrentApp.bitTorrentClient  DownloadComplete_Test:vector  ETV
attr source  BitTorrentClient_DownloadComplete_Test
attr title  "Descargas completas (prueba), vector"
vector 11  BasicTopology.peer[5].bitTorrentApp.bitTorrentClient  DownloadComplete_Test:vector  ETV
attr source  BitTorrentClient_DownloadComplete_Test
attr title  "Descargas completas (prueba), vector"
vector 13  BasicTopology.peer[6].bitTorrentApp.bitTorrentClient  DownloadComplete_Test:vector  ETV
attr source  BitTorrentClient_DownloadComplete_Test
attr title  "Descargas completas (prueba), vector"
vector 15  BasicTopology.peer[7].bitTorrentApp.bitTorrentClient  DownloadComplete_Test:vector  ETV
attr source  BitTorrentClient_DownloadComplete_Test
attr title  "Descargas completas (prueba), vector"
vector 17  BasicTopology.peer[8].bitTorrentApp.bitTorrentClient  DownloadComplete_Test:vector  ETV
attr source  BitTorrentClient_DownloadComplete_Test
attr title  "Descargas completas (prueba), vector"
vector 19  BasicTopology.peer[9].bitTorrentApp.bitTorrentClient  DownloadComplete_Test:vector  ETV
attr source  BitTorrentClient_DownloadComplete_Test
attr title  "Descargas completas (prueba), vector"
vector 21  BasicTopology.peer[10].bitTorrentApp.bitTorrentClient  DownloadComplete_Test:vector  ETV
attr source  BitTorrentClient_DownloadComplete_Test
attr title  "Descargas completas (prueba), vector"
vector 23  BasicTopology.peer[11].bitTorrentApp.bitTorrentClient  DownloadComplete_Test:vector  ETV
attr source  BitTorrentClient_DownloadComplete_Test
attr title  "Descargas completas (prueba), vector"
vector 25  BasicTopology.peer[12].bitTorrentApp.bitTorrentClient  DownloadComplete_Test:vector  ETV
attr source  BitTorrentClient_DownloadComplete_Test
attr title  "Descargas completas (prueba), vector"
vector 27  BasicTopology.peer[13].bitTorrentApp.bitTorrentClient  DownloadComplete_Test:vector  ETV
attr source  BitTorrentClient_DownloadComplete_Test
attr title  "Descargas completas (prueba), vector"
vector 29  BasicTopology.peer[14].bitTorrentApp.bitTorrentClient  DownloadComplete_Test:vector  ETV
attr source  BitTorrentClient_DownloadComplete_Test
attr title  "Descargas completas (prueba), vector"
vector 31  BasicTopology.peer[15].bitTorrentApp.bitTorrentClient  DownloadComplete_Test:vector  ETV
attr source  BitTorrentClient_DownloadComplete_Test
attr title  "Descargas completas (prueba), vector"
vector 33  BasicTopology.peer[16].bitTorrentApp.bitTorrentClient  DownloadComplete_Test:vector  ETV
attr source  BitTorrentClient_DownloadComplete_Test
attr title  "Descargas completas (prueba), vector"
vector 35  BasicTopology.peer[17].bitTorrentApp.bitTorrentClient  DownloadComplete_Test:vector  ETV
attr source  BitTorrentClient_DownloadComplete_Test
attr title  "Descargas completas (prueba), vector"
vector 37  BasicTopology.peer[18].bitTorrentApp.bitTorrentClient  DownloadComplete_Test:vector  ETV
attr source  BitTorrentClient_DownloadComplete_Test
attr title  "Descargas completas (prueba), vector"
vector 39  BasicTopology.peer[19].bitTorrentApp.bitTorrentClient  DownloadComplete_Test:vector  ETV
attr source  BitTorrentClient_DownloadComplete_Test
attr title  "Descargas completas (prueba), vector"
vector 41  BasicTopology.peer[20].bitTorrentApp.bitTorrentClient  DownloadComplete_Test:vector  ETV
attr source  BitTorrentClient_DownloadComplete_Test
attr title  "Descargas completas (prueba), vector"
vector 43  BasicTopology.peer[21].bitTorrentApp.bitTorrentClient  DownloadComplete_Test:vector  ETV
attr source  BitTorrentClient_DownloadComplete_Test
attr title  "Descargas completas (prueba), vector"
vector 45  BasicTopology.peer[22].bitTorrentApp.bitTorrentClient  DownloadComplete_Test:vector  ETV
attr source  BitTorrentClient_DownloadComplete_Test
attr title  "Descargas completas (prueba), vector"
vector 47  BasicTopology.peer[23].bitTorrentApp.bitTorrentClient  DownloadComplete_Test:vector  ETV
attr source  BitTorrentClient_DownloadComplete_Test
attr title  "Descargas completas (prueba), vector"
vector 49  BasicTopology.peer[24].bitTorrentApp.bitTorrentClient  DownloadComplete_Test:vector  ETV
attr source  BitTorrentClient_DownloadComplete_Test
attr title  "Descargas completas (prueba), vector"
vector 833  BasicTopology.peer[0].bitTorrentApp.bitTorrentClient.contentManager_26  TotalBytesUploaded:vector  ETV
attr source  ContentManager_TotalBytesUploaded
attr title  "Total of Bytes Uploaded, vector"
attr unit  B
vector 944  BasicTopology.peer[14].bitTorrentApp.bitTorrentClient.contentManager_26  TotalBytesDownloaded:vector  ETV
attr source  ContentManager_TotalBytesDownloaded
attr title  "Total of Bytes Downloaded, vector"
attr unit  B
vector 872  BasicTopology.peer[5].bitTorrentApp.bitTorrentClient.contentManager_26  TotalBytesDownloaded:vector  ETV
attr source  ContentManager_TotalBytesDownloaded
attr title  "Total of Bytes Downloaded, vector"
attr unit  B
vector 840  BasicTopology.peer[1].bitTorrentApp.bitTorrentClient.contentManager_26  TotalBytesDownloaded:vector  ETV
attr source  ContentManager_TotalBytesDownloaded
attr title  "Total of Bytes Downloaded, vector"
attr unit  B
vector 943  BasicTopology.peer[14].bitTorrentApp.bitTorrentClient.contentManager_26  PiecesDownloaded:vector  ETV
attr source  ContentManager_PieceDownloaded
attr title  "Pieces Downloaded, vector"
vector 945  BasicTopology.peer[14].bitTorrentApp.bitTorrentClient.contentManager_26  TotalBytesUploaded:vector  ETV
attr source  ContentManager_TotalBytesUploaded
attr title  "Total of Bytes Uploaded, vector"
attr unit  B
vector 880  BasicTopology.peer[6].bitTorrentApp.bitTorrentClient.contentManager_26  TotalBytesDownloaded:vector  ETV
attr source  ContentManager_TotalBytesDownloaded
attr title  "Total of Bytes Downloaded, vector"
attr unit  B
vector 912  BasicTopology.peer[10].bitTorrentApp.bitTorrentClient.contentManager_26  TotalBytesDownloaded:vector  ETV
attr source  ContentManager_TotalBytesDownloaded
attr title  "Total of Bytes Downloaded, vector"
attr unit  B
vector 920  BasicTopology.peer[11].bitTorrentApp.bitTorrentClient.contentManager_26  TotalBytesDownloaded:vector  ETV
attr source  ContentManager_TotalBytesDownloaded
attr title  "Total of Bytes Downloaded, vector"
attr unit  B
vector 888  BasicTopology.peer[7].bitTorrentApp.bitTorrentClient.contentManager_26  TotalBytesDownloaded:vector  ETV
attr source  ContentManager_TotalBytesDownloaded
attr title  "Total of Bytes Downloaded, vector"
attr unit  B
vector 896  BasicTopology.peer[8].bitTorrentApp.bitTorrentClient.contentManager_26  TotalBytesDownloaded:vector  ETV
attr source  ContentManager_TotalBytesDownloaded
attr title  "Total of Bytes Downloaded, vector"
attr unit  B
vector 879  BasicTopology.peer[6].bitTorrentApp.bitTorrentClient.contentManager_26  PiecesDownloaded:vector  ETV
attr source  ContentManager_PieceDownloaded
attr title  "Pieces Downloaded, vector"
vector 881  BasicTopology.peer[6].bitTorrentApp.bitTorrentClient.contentManager_26  TotalBytesUploaded:vector  ETV
attr source  ContentManager_TotalBytesUploaded
attr title  "Total of Bytes Uploaded, vector"
attr unit  B
vector 1016  BasicTopology.peer[23].bitTorrentApp.bitTorrentClient.contentManager_26  TotalBytesDownloaded:vector  ETV
attr source  ContentManager_TotalBytesDownloaded
attr title  "Total of Bytes Downloaded, vector"
attr unit  B
vector 968  BasicTopology.peer[17].bitTorrentApp.bitTorrentClient.contentManager_26  TotalBytesDownloaded:vector  ETV
attr source  ContentManager_TotalBytesDownloaded
attr title  "Total of Bytes Downloaded, vector"
attr unit  B
vector 839  BasicTopology.peer[1].bitTorrentApp.bitTorrentClient.contentManager_26  PiecesDownloaded:vector  ETV
attr source  ContentManager_PieceDownloaded
attr title  "Pieces Downloaded, vector"
vector 841  BasicTopology.peer[1].bitTorrentApp.bitTorrentClient.contentManager_26  TotalBytesUploaded:vector  ETV
attr source  ContentManager_TotalBytesUploaded
attr title  "Total of Bytes Uploaded, vector"
attr unit  B
vector 864  BasicTopology.peer[4].bitTorrentApp.bitTorrentClient.contentManager_26  TotalBytesDownloaded:vector  ETV
attr source  ContentManager_TotalBytesDownloaded
attr title  "Total of Bytes Downloaded, vector"
attr unit  B
vector 976  BasicTopology.peer[18].bitTorrentApp.bitTorrentClient.contentManager_26  TotalBytesDownloaded:vector  ETV
attr source  ContentManager_TotalBytesDownloaded
attr title  "Total of Bytes Downloaded, vector"
attr unit  B
vector 919  BasicTopology.peer[11].bitTorrentApp.bitTorrentClient.contentManager_26  PiecesDownloaded:vector  ETV
attr source  ContentManager_PieceDownloaded
attr title  "Pieces Downloaded, vector"
vector 921  BasicTopology.peer[11].bitTorrentApp.bitTorrentClient.contentManager_26  TotalBytesUploaded:vector  ETV
attr source  ContentManager_TotalBytesUploaded
attr title  "Total of Bytes Uploaded, vector"
attr unit  B
vector 1015  BasicTopology.peer[23].bitTorrentApp.bitTorrentClient.contentManager_26  PiecesDownloaded:vector  ETV
attr source  ContentManager_PieceDownloaded
attr title  "Pieces Downloaded, vector"
vector 1017  BasicTopology.peer[23].bitTorrentApp.bitTorrentClient.contentManager_26  TotalBytesUploaded:vector  ETV
attr source  ContentManager_TotalBytesUploaded
attr title  "Total of Bytes Uploaded, vector"
attr unit  B
vector 856  BasicTopology.peer[3].bitTorrentApp.bitTorrentClient.contentManager_26  TotalBytesDownloaded:vector  ETV
attr source  ContentManager_TotalBytesDownloaded
attr title  "Total of Bytes Downloaded, vector"
attr unit  B
vector 904  BasicTopology.peer[9].bitTorrentApp.bitTorrentClient.contentManager_26  TotalBytesDownloaded:vector  ETV
attr source  ContentManager_TotalBytesDownloaded
attr title  "Total of Bytes Downloaded, vector"
attr unit  B
vector 848  BasicTopology.peer[2].bitTorrentApp.bitTorrentClient.contentManager_26  TotalBytesDownloaded:vector  ETV
attr source  ContentManager_TotalBytesDownloaded
attr title  "Total of Bytes Downloaded, vector"
attr unit  B
vector 911  BasicTopology.peer[10].bitTorrentApp.bitTorrentClient.contentManager_26  PiecesDownloaded:vector  ETV
attr source  ContentManager_PieceDownloaded
attr title  "Pieces Downloaded, vector"
vector 913  BasicTopology.peer[10].bitTorrentApp.bitTorrentClient.contentManager_26  TotalBytesUploaded:vector  ETV
attr source  ContentManager_TotalBytesUploaded
attr title  "Total of Bytes Uploaded, vector"
attr unit  B
vector 863  BasicTopology.peer[4].bitTorrentApp.bitTorrentClient.contentManager_26  PiecesDownloaded:vector  ETV
attr source  ContentManager_PieceDownloaded
attr title  "Pieces Downloaded, vector"
vector 865  BasicTopology.peer[4].bitTorrentApp.bitTorrentClient.contentManager_26  TotalBytesUploaded:vector  ETV
attr source  ContentManager_TotalBytesUploaded
attr title  "Total of Bytes Uploaded, vector"
attr unit  B
vector 1008  BasicTopology.peer[22].bitTorrentApp.bitTorrentClient.contentManager_26  TotalBytesDownloaded:vector  ETV
attr source  ContentManager_TotalBytesDownloaded
attr title  "Total of Bytes Downloaded, vector"
attr unit  B
vector 960  BasicTopology.peer[16].bitTorrentApp.bitTorrentClient.contentManager_26  TotalBytesDownloaded:vector  ETV
attr source  ContentManager_TotalBytesDownloaded
attr title  "Total of Bytes Downloaded, vector"
attr unit  B
vector 952  BasicTopology.peer[15].bitTorrentApp.bitTorrentClient.contentManager_26  TotalBytesDownloaded:vector  ETV
attr source  ContentManager_TotalBytesDownloaded
attr title  "Total of Bytes Downloaded, vector"
attr unit  B
vector 967  BasicTopology.peer[17].bitTorrentApp.bitTorrentClient.contentManager_26  PiecesDownloaded:vector  ETV
attr source  ContentManager_PieceDownloaded
attr title  "Pieces Downloaded, vector"
vector 969  BasicTopology.peer[17].bitTorrentApp.bitTorrentClient.contentManager_26  TotalBytesUploaded:vector  ETV
attr source  ContentManager_TotalBytesUploaded
attr title  "Total of Bytes Uploaded, vector"
attr unit  B
vector 975  BasicTopology.peer[18].bitTorrentApp.bitTorrentClient.contentManager_26  PiecesDownloaded:vector  ETV
attr source  ContentManager_PieceDownloaded
attr title  "Pieces Downloaded, vector"
vector 847  BasicTopology.peer[2].bitTorrentApp.bitTorrentClient.contentManager_26  PiecesDownloaded:vector  ETV
attr source  ContentManager_PieceDownloaded
attr title  "Pieces Downloaded, vector"
vector 928  BasicTopology.peer[12].bitTorrentApp.bitTorrentClient.contentManager_26  TotalBytesDownloaded:vector  ETV
attr source  ContentManager_TotalBytesDownloaded
attr title  "Total of Bytes Downloaded, vector"
attr unit  B
vector 984  BasicTopology.peer[19].bitTorrentApp.bitTorrentClient.contentManager_26  TotalBytesDownloaded:vector  ETV
attr source  ContentManager_TotalBytesDownloaded
attr title  "Total of Bytes Downloaded, vector"
attr unit  B
vector 855  BasicTopology.peer[3].bitTorrentApp.bitTorrentClient.contentManager_26  PiecesDownloaded:vector  ETV
attr source  ContentManager_PieceDownloaded
attr title  "Pieces Downloaded, vector"
vector 857  BasicTopology.peer[3].bitTorrentApp.bitTorrentClient.contentManager_26  TotalBytesUploaded:vector  ETV
attr source  ContentManager_TotalBytesUploaded
attr title  "Total of Bytes Uploaded, vector"
attr unit  B
vector 1000  BasicTopology.peer[21].bitTorrentApp.bitTorrentClient.contentManager_26  TotalBytesDownloaded:vector  ETV
attr source  ContentManager_TotalBytesDownloaded
attr title  "Total of Bytes Downloaded, vector"
attr unit  B
vector 1024  BasicTopology.peer[24].bitTorrentApp.bitTorrentClient.contentManager_26  TotalBytesDownloaded:vector  ETV
attr source  ContentManager_TotalBytesDownloaded
attr title  "Total of Bytes Downloaded, vector"
attr unit  B
vector 895  BasicTopology.peer[8].bitTorrentApp.bitTorrentClient.contentManager_26  PiecesDownloaded:vector  ETV
attr source  ContentManager_PieceDownloaded
attr title  "Pieces Downloaded, vector"
vector 927  BasicTopology.peer[12].bitTorrentApp.bitTorrentClient.contentManager_26  PiecesDownloaded:vector  ETV
attr source  ContentManager_PieceDownloaded
attr title  "Pieces Downloaded, vector"
vector 897  BasicTopology.peer[8].bitTorrentApp.bitTorrentClient.contentManager_26  TotalBytesUploaded:vector  ETV
attr source  ContentManager_TotalBytesUploaded
attr title  "Total of Bytes Uploaded, vector"
attr unit  B
vector 983  BasicTopology.peer[19].bitTorrentApp.bitTorrentClient.contentManager_26  PiecesDownloaded:vector  ETV
attr source  ContentManager_PieceDownloaded
attr title  "Pieces Downloaded, vector"
vector 887  BasicTopology.peer[7].bitTorrentApp.bitTorrentClient.contentManager_26  PiecesDownloaded:vector  ETV
attr source  ContentManager_PieceDownloaded
attr title  "Pieces Downloaded, vector"
vector 936  BasicTopology.peer[13].bitTorrentApp.bitTorrentClient.contentManager_26  TotalBytesDownloaded:vector  ETV
attr source  ContentManager_TotalBytesDownloaded
attr title  "Total of Bytes Downloaded, vector"
attr unit  B
vector 929  BasicTopology.peer[12].bitTorrentApp.bitTorrentClient.contentManager_26  TotalBytesUploaded:vector  ETV
attr source  ContentManager_TotalBytesUploaded
attr title  "Total of Bytes Uploaded, vector"
attr unit  B
vector 959  BasicTopology.peer[16].bitTorrentApp.bitTorrentClient.contentManager_26  PiecesDownloaded:vector  ETV
attr source  ContentManager_PieceDownloaded
attr title  "Pieces Downloaded, vector"
vector 871  BasicTopology.peer[5].bitTorrentApp.bitTorrentClient.contentManager_26  PiecesDownloaded:vector  ETV
attr source  ContentManager_PieceDownloaded
attr title  "Pieces Downloaded, vector"
vector 849  BasicTopology.peer[2].bitTorrentApp.bitTorrentClient.contentManager_26  TotalBytesUploaded:vector  ETV
attr source  ContentManager_TotalBytesUploaded
attr title  "Total of Bytes Uploaded, vector"
attr unit  B
vector 992  BasicTopology.peer[20].bitTorrentApp.bitTorrentClient.contentManager_26  TotalBytesDownloaded:vector  ETV
attr source  ContentManager_TotalBytesDownloaded
attr title  "Total of Bytes Downloaded, vector"
attr unit  B
vector 951  BasicTopology.peer[15].bitTorrentApp.bitTorrentClient.contentManager_26  PiecesDownloaded:vector  ETV
attr source  ContentManager_PieceDownloaded
attr title  "Pieces Downloaded, vector"
vector 1007  BasicTopology.peer[22].bitTorrentApp.bitTorrentClient.contentManager_26  PiecesDownloaded:vector  ETV
attr source  ContentManager_PieceDownloaded
attr title  "Pieces Downloaded, vector"
vector 1023  BasicTopology.peer[24].bitTorrentApp.bitTorrentClient.contentManager_26  PiecesDownloaded:vector  ETV
attr source  ContentManager_PieceDownloaded
attr title  "Pieces Downloaded, vector"
vector 873  BasicTopology.peer[5].bitTorrentApp.bitTorrentClient.contentManager_26  TotalBytesUploaded:vector  ETV
attr source  ContentManager_TotalBytesUploaded
attr title  "Total of Bytes Uploaded, vector"
attr unit  B
vector 999  BasicTopology.peer[21].bitTorrentApp.bitTorrentClient.contentManager_26  PiecesDownloaded:vector  ETV
attr source  ContentManager_PieceDownloaded
attr title  "Pieces Downloaded, vector"
vector 1001  BasicTopology.peer[21].bitTorrentApp.bitTorrentClient.contentManager_26  TotalBytesUploaded:vector  ETV
attr source  ContentManager_TotalBytesUploaded
attr title  "Total of Bytes Uploaded, vector"
attr unit  B
vector 1009  BasicTopology.peer[22].bitTorrentApp.bitTorrentClient.contentManager_26  TotalBytesUploaded:vector  ETV
attr source  ContentManager_TotalBytesUploaded
attr title  "Total of Bytes Uploaded, vector"
attr unit  B
vector 991  BasicTopology.peer[20].bitTorrentApp.bitTorrentClient.contentManager_26  PiecesDownloaded:vector  ETV
attr source  ContentManager_PieceDownloaded
attr title  "Pieces Downloaded, vector"
vector 993  BasicTopology.peer[20].bitTorrentApp.bitTorrentClient.contentManager_26  TotalBytesUploaded:vector  ETV
attr source  ContentManager_TotalBytesUploaded
attr title  "Total of Bytes Uploaded, vector"
attr unit  B
vector 935  BasicTopology.peer[13].bitTorrentApp.bitTorrentClient.contentManager_26  PiecesDownloaded:vector  ETV
attr source  ContentManager_PieceDownloaded
attr title  "Pieces Downloaded, vector"
vector 903  BasicTopology.peer[9].bitTorrentApp.bitTorrentClient.contentManager_26  PiecesDownloaded:vector  ETV
attr source  ContentManager_PieceDownloaded
attr title  "Pieces Downloaded, vector"
vector 1025  BasicTopology.peer[24].bitTorrentApp.bitTorrentClient.contentManager_26  TotalBytesUploaded:vector  ETV
attr source  ContentManager_TotalBytesUploaded
attr title  "Total of Bytes Uploaded, vector"
attr unit  B
vector 985  BasicTopology.peer[19].bitTorrentApp.bitTorrentClient.contentManager_26  TotalBytesUploaded:vector  ETV
attr source  ContentManager_TotalBytesUploaded
attr title  "Total of Bytes Uploaded, vector"
attr unit  B
vector 905  BasicTopology.peer[9].bitTorrentApp.bitTorrentClient.contentManager_26  TotalBytesUploaded:vector  ETV
attr source  ContentManager_TotalBytesUploaded
attr title  "Total of Bytes Uploaded, vector"
attr unit  B
vector 953  BasicTopology.peer[15].bitTorrentApp.bitTorrentClient.contentManager_26  TotalBytesUploaded:vector  ETV
attr source  ContentManager_TotalBytesUploaded
attr title  "Total of Bytes Uploaded, vector"
attr unit  B
3	85	36001	36001
3	64697937	36125.423173683951	36125.423173684
5	86	36001	36001
5	73492410	36143.418372718813	36143.418372719
7	87	36001	36001
7	66185835	36128.147598200662	36128.147598201
9	88	36001	36001
9	71070654	36138.675105029261	36138.675105029
11	89	36001	36001
11	81393042	36163.572363057192	36163.572363057
13	90	36001	36001
13	79716087	36159.451744564372	36159.451744564
15	91	36001	36001
15	79766794	36159.540245183886	36159.540245184
17	92	36001	36001
17	80098514	36160.289164901375	36160.289164901
19	93	36001	36001
19	67279853	36130.407356204214	36130.407356204
21	94	36001	36001
21	73208953	36142.815821525317	36142.815821525
23	95	36001	36001
23	81509315	36163.818570406919	36163.818570407
25	96	36001	36001
25	71113263	36138.783007400949	36138.783007401
27	97	36001	36001
27	76371033	36151.579172085853	36151.579172086
29	98	36001	36001
29	75279563	36148.822320037895	36148.822320038
31	99	36001	36001
31	76082837	36150.849176705454	36150.849176705
33	100	36001	36001
33	80617030	36161.821092110248	36161.82109211
35	101	36001	36001
35	75384267	36149.042611969332	36149.042611969
37	102	36001	36001
37	81836620	36164.625670788807	36164.625670789
39	103	36001	36001
39	78808020	36157.334739844887	36157.334739845
41	104	36001	36001
41	62630321	36121.575539450735	36121.575539451
43	105	36001	36001
43	62814248	36121.892656578651	36121.892656579
45	106	36001	36001
45	60413938	36116.692205995371	36116.692205995
47	107	36001	36001
47	82751534	36216.545105968095	36216.545105968
49	108	36001	36001
49	69392665	36135.038869399104	36135.038869399
833	137763	36001.108165898414	32768
833	141532	36001.113065534968	65536
833	146686	36001.119962055578	98304
833	148354	36001.120853393081	131072
833	149604	36001.121593919568	163840
833	149779	36001.121700143973	196608
833	150324	36001.122094677449	229376
833	170610	36001.139040509761	262144
833	194560	36001.163633096229	294912
833	200617	36001.172084249728	327680
833	349710	36001.655725731426	360448
833	350422	36001.657208279612	393216
833	356224	36001.667927965121	425984
833	356842	36001.669009989847	458752
833	362193	36001.681786032348	491520
833	362344	36001.682210799701	524288
833	364886	36001.686642383834	557056
833	365111	36001.68701069366	589824
833	381489	36001.720287468548	622592
833	384843	36001.727564808323	655360
833	389849	36001.739645232048	688128
833	389978	36001.739993585015	720896
833	391293	36001.743710933585	753664
833	398366	36001.762790599597	786432
833	402790	36001.776917650643	819200
833	402865	36001.777135052467	851968
833	403799	36001.781090257551	884736
833	404072	36001.782294892261	917504
833	405266	36001.784530265513	950272
833	405668	36001.785117224975	983040
833	449269	36001.900692241612	1015808
833	513030	36002.029516929307	1048576
833	666866	36002.852107541301	1081344
833	713464	36002.963225529716	1114112
833	782809	36003.117646150407	1146880
833	875373	36003.349846385463	1179648
833	1032760	36003.786778288293	1212416
833	1032861	36003.786967545052	1245184
833	1032911	36003.787161804842	1277952
833	1032920	36003.787325054213	1310720
833	1034236	36003.791338709793	1343488
833	1035388	36003.795365721773	1376256
833	1035901	36003.79696906742	1409024
833	1037599	36003.800534881265	1441792
833	1038299	36003.802093497948	1474560
833	1038339	36003.802251799933	1507328
833	1073848	36003.896306089491	1540096
833	1090422	36003.947048357564	1572864
833	1114448	36004.003546106538	1605632
833	1417063	36004.84716900519	1638400
833	1417748	36004.872218413384	1671168
833	1417750	36004.87472435371	1703936
833	1417753	36004.882672801346	1736704
833	1417755	36004.88297245288	1769472
833	1557578	36005.541768697348	1802240
833	1619938	36005.687740976416	1835008
833	1663614	36005.982308601804	1867776
833	1738150	36006.203218418035	1900544
833	1741351	36006.209605751414	1933312
833	1965632	36007.072289713671	1966080
833	2007412	36007.14461518068	1998848
833	2027684	36007.222109741859	2031616
833	2113876	36007.378643574689	2064384
833	2114421	36007.380392272794	2097152
833	2284360	36008.211396038384	2129920
833	2298917	36008.259671072474	2162688
833	2411195	36008.562798023717	2195456
833	2474363	36008.661433088358	2228224
833	2612402	36009.34439961358	2260992
833	2878821	36009.848886744585	2293760
833	3173185	36010.39573511322	2326528
833	3224690	36010.501265164895	2359296
833	3235540	36010.536442326502	2392064
833	3405184	36011.010481954632	2424832
833	3484815	36011.216495233208	2457600
833	3579871	36011.59227447801	2490368
833	3613719	36011.684088079682	2523136
833	3704320	36011.82593853238	2555904
833	4257490	36012.919293848455	2588672
833	4310871	36013.018359576942	2621440
833	4407452	36013.119412852025	2654208
833	5072495	36014.504867144018	2686976
833	5159777	36014.735394461356	2719744
833	5896662	36016.235941214311	2752512
833	6272752	36016.875924939052	2785280
833	6330062	36017.038415158069	2818048
833	7102634	36018.391529154746	2850816
833	7113453	36018.404662490001	2883584
833	7242405	36018.638949434286	2916352
833	7275667	36018.705612823021	2949120
833	7298964	36018.743260438246	2981888
833	7350429	36018.82116530321	3014656
833	7378755	36018.865715896827	3047424
833	7856309	36019.926944519445	3080192
833	7882243	36019.964031256023	3112960
833	7915371	36020.008038192017	3145728
833	7958602	36020.073851828293	3178496
833	7983970	36020.11253238552	3211264
833	8031669	36020.176796280244	3244032
833	8088763	36020.259596429507	3276800
833	8121911	36020.307627494755	3309568
833	8170502	36020.377557566888	3342336
833	8204874	36020.432203671605	3375104
833	8239384	36020.486602901156	3407872
833	8617283	36021.154337400058	3440640
833	8618509	36021.155908089504	3473408
833	8618604	36021.156005062261	3506176
833	8619136	36021.156844517393	3538944
833	8625556	36021.167148559334	3571712
833	8626417	36021.168509156718	3604480
833	8637938	36021.187707658858	3637248
833	8644983	36021.19822773279	3670016
833	8650441	36021.20660730552	3702784
833	8650554	36021.206785198021	3735552
833	8670748	36021.236700442117	3768320
833	8748441	36021.353839586395	3801088
833	9440053	36022.425211641893	3833856
833	9522069	36022.558875076516	3866624
833	9564283	36022.628638586028	3899392
833	10125748	36023.748921799847	3932160
833	10201040	36023.861544834232	3964928
833	10302817	36024.008589113496	3997696
833	10449121	36024.371057176411	4030464
833	10933953	36025.125627169383	4063232
833	11724482	36026.327379111114	4096000
833	11841803	36026.487830790824	4128768
833	11882970	36026.551667323701	4161536
833	13097989	36028.737001261349	4194304
833	13197067	36028.871160423932	4227072
833	13857453	36029.999434114413	4259840
833	14474071	36031.039092995548	4292608
833	14523554	36031.117064855318	4325376
833	14536718	36031.136113341287	4358144
833	14536810	36031.13628374998	4390912
833	14537949	36031.137898266432	4423680
833	14544269	36031.147658520426	4456448
833	14544771	36031.14825928544	4489216
833	14559470	36031.16660225156	4521984
833	14566715	36031.176381903826	4554752
833	14566801	36031.176491901278	4587520
833	14567030	36031.176865385857	4620288
833	22834577	36045.698581263297	4653056
833	23720454	36047.118049593874	4685824
833	23762599	36047.18424879279	4718592
833	23836199	36047.302886640536	4751360
833	26050687	36051.114899426034	4784128
833	26053886	36051.123497553	4816896
833	26056438	36051.130691923742	4849664
833	26059892	36051.140739073269	4882432
833	26060163	36051.141482318964	4915200
833	26061231	36051.146153283751	4947968
833	26068166	36051.163460577617	4980736
833	26068398	36051.164018844755	5013504
833	26072741	36051.173895298499	5046272
833	26074510	36051.177746215512	5079040
833	29023822	36056.104692305905	5111808
833	31827382	36061.17244485851	5144576
833	31835576	36061.184944975429	5177344
833	31835839	36061.185279884158	5210112
833	31860817	36061.226698725755	5242880
833	31861173	36061.227333275184	5275648
833	31861868	36061.228582719517	5308416
833	31872680	36061.244524412873	5341184
833	31880711	36061.257720906356	5373952
833	31891156	36061.279568161923	5406720
833	31901831	36061.303810421645	5439488
833	42988386	36081.151205447833	5472256
833	42996962	36081.165655462402	5505024
833	42999907	36081.171873600018	5537792
833	43000572	36081.172782566273	5570560
833	43001455	36081.173953152585	5603328
833	43001851	36081.17448451957	5636096
833	43010844	36081.192974466216	5668864
833	43016472	36081.204023720722	5701632
833	43026350	36081.222985567921	5734400
833	43026489	36081.223236156299	5767168
833	48196319	36091.108394195086	5799936
833	48197362	36091.109833484867	5832704
833	48197436	36091.110039146583	5865472
833	48205887	36091.122259777755	5898240
833	48208859	36091.126213815083	5931008
833	48213476	36091.132747013263	5963776
833	48219583	36091.142943274399	5996544
833	48219650	36091.143049365784	6029312
833	48221042	36091.145733861159	6062080
833	48229370	36091.158603082828	6094848
833	48389675	36091.436023327265	6127616
833	50933680	36096.946635200478	6160384
833	52011263	36099.141762979161	6193152
833	52070161	36099.249438730682	6225920
833	52203385	36099.492696003138	6258688
833	53947313	36103.31521451557	6291456
833	54947525	36105.458310581431	6324224
833	55484070	36106.600982452378	6356992
833	60116089	36116.140995542743	6389760
833	60231401	36116.345195147717	6422528
833	60294636	36116.472101157334	6455296
833	60367228	36116.614082780232	6488064
833	63114390	36122.347429507165	6520832
833	63114644	36122.347653570955	6553600
833	63115675	36122.349453402156	6586368
833	63128146	36122.366250250752	6619136
833	63129956	36122.368565943818	6651904
833	63146989	36122.391819643692	6684672
833	63156952	36122.405249970319	6717440
833	63174815	36122.434391222209	6750208
833	68830589	36133.705959875661	6782976
833	75331283	36148.935782285804	6815744
833	75415710	36149.104844702731	6848512
833	75783547	36150.286890183844	6881280
833	75836435	36150.418769832394	6914048
833	77342817	36153.625964960879	6946816