version 2
run Test-10-20200526-12:14:53-5244
attr configname Test
attr datetime 20200526-12:14:53
attr experiment "\"Simulation Test\""
attr inifile BasicConfig.ini
attr iterationvars ""
attr iterationvars2 $repetition=10
attr measurement "\"Peers: $peers, Rate: $rate\""
attr network BasicTopology
attr processid 5244
attr repetition 10
attr replication #10
attr resultdir results
attr runnumber 10
attr seedset 10

vector 3  BasicTopology.peer[1].bitTorrentApp.bitTorrentClient  DownloadComplete_Test:vector  ETV
attr source  BitTorrentClient_DownloadComplete_Test
attr title  "Descargas completas (prueba), vector"
vector 5  BasicTopology.peer[2].bitTorrentApp.bitTorrentClient  DownloadComplete_Test:vector  ETV
attr source  BitTorrentClient_DownloadComplete_Test
attr title  "Descargas completas (prueba), vector"
vector 7  BasicTopology.peer[3].bitTorrentApp.bitTorrentClient  DownloadComplete_Test:vector  ETV
attr source  BitTorrentClient_DownloadComplete_Test
attr title  "Descargas completas (prueba), vector"
vector 9  BasicTopology.peer[4].bitTorrentApp.bitTorrentClient  DownloadComplete_Test:vector  ETV
attr source  BitTorrentClient_DownloadComplete_Test
attr title  "Descargas completas (prueba), vector"
vector 11  BasicTopology.peer[5].bitTorrentApp.bitTorrentClient  DownloadComplete_Test:vector  ETV
attr source  BitTorrentClient_DownloadComplete_Test
attr title  "Descargas completas (prueba), vector"
vector 13  BasicTopology.peer[6].bitTorrentApp.bitTorrentClient  DownloadComplete_Test:vector  ETV
attr source  BitTorrentClient_DownloadComplete_Test
attr title  "Descargas completas (prueba), vector"
vector 15  BasicTopology.peer[7].bitTorrentApp.bitTorrentClient  DownloadComplete_Test:vector  ETV
attr source  BitTorrentClient_DownloadComplete_Test
attr title  "Descargas completas (prueba), vector"
vector 17  BasicTopology.peer[8].bitTorrentApp.bitTorrentClient  DownloadComplete_Test:vector  ETV
attr source  BitTorrentClient_DownloadComplete_Test
attr title  "Descargas completas (prueba), vector"
vector 19  BasicTopology.peer[9].bitTorrentApp.bitTorrentClient  DownloadComplete_Test:vector  ETV
attr source  BitTorrentClient_DownloadComplete_Test
attr title  "Descargas completas (prueba), vector"
vector 21  BasicTopology.peer[10].bitTorrentApp.bitTorrentClient  DownloadComplete_Test:vector  ETV
attr source  BitTorrentClient_DownloadComplete_Test
attr title  "Descargas completas (prueba), vector"
vector 23  BasicTopology.peer[11].bitTorrentApp.bitTorrentClient  DownloadComplete_Test:vector  ETV
attr source  BitTorrentClient_DownloadComplete_Test
attr title  "Descargas completas (prueba), vector"
vector 25  BasicTopology.peer[12].bitTorrentApp.bitTorrentClient  DownloadComplete_Test:vector  ETV
attr source  BitTorrentClient_DownloadComplete_Test
attr title  "Descargas completas (prueba), vector"
vector 27  BasicTopology.peer[13].bitTorrentApp.bitTorrentClient  DownloadComplete_Test:vector  ETV
attr source  BitTorrentClient_DownloadComplete_Test
attr title  "Descargas completas (prueba), vector"
vector 29  BasicTopology.peer[14].bitTorrentApp.bitTorrentClient  DownloadComplete_Test:vector  ETV
attr source  BitTorrentClient_DownloadComplete_Test
attr title  "Descargas completas (prueba), vector"
vector 31  BasicTopology.peer[15].bitTorrentApp.bitTorrentClient  DownloadComplete_Test:vector  ETV
attr source  BitTorrentClient_DownloadComplete_Test
attr title  "Descargas completas (prueba), vector"
vector 33  BasicTopology.peer[16].bitTorrentApp.bitTorrentClient  DownloadComplete_Test:vector  ETV
attr source  BitTorrentClient_DownloadComplete_Test
attr title  "Descargas completas (prueba), vector"
vector 35  BasicTopology.peer[17].bitTorrentApp.bitTorrentClient  DownloadComplete_Test:vector  ETV
attr source  BitTorrentClient_DownloadComplete_Test
attr title  "Descargas completas (prueba), vector"
vector 37  BasicTopology.peer[18].bitTorrentApp.bitTorrentClient  DownloadComplete_Test:vector  ETV
attr source  BitTorrentClient_DownloadComplete_Test
attr title  "Descargas completas (prueba), vector"
vector 39  BasicTopology.peer[19].bitTorrentApp.bitTorrentClient  DownloadComplete_Test:vector  ETV
attr source  BitTorrentClient_DownloadComplete_Test
attr title  "Descargas completas (prueba), vector"
vector 41  BasicTopology.peer[20].bitTorrentApp.bitTorrentClient  DownloadComplete_Test:vector  ETV
attr source  BitTorrentClient_DownloadComplete_Test
attr title  "Descargas completas (prueba), vector"
vector 43  BasicTopology.peer[21].bitTorrentApp.bitTorrentClient  DownloadComplete_Test:vector  ETV
attr source  BitTorrentClient_DownloadComplete_Test
attr title  "Descargas completas (prueba), vector"
vector 45  BasicTopology.peer[22].bitTorrentApp.bitTorrentClient  DownloadComplete_Test:vector  ETV
attr source  BitTorrentClient_DownloadComplete_Test
attr title  "Descargas completas (prueba), vector"
vector 47  BasicTopology.peer[23].bitTorrentApp.bitTorrentClient  DownloadComplete_Test:vector  ETV
attr source  BitTorrentClient_DownloadComplete_Test
attr title  "Descargas completas (prueba), vector"
vector 49  BasicTopology.peer[24].bitTorrentApp.bitTorrentClient  DownloadComplete_Test:vector  ETV
attr source  BitTorrentClient_DownloadComplete_Test
attr title  "Descargas completas (prueba), vector"
vector 833  BasicTopology.peer[0].bitTorrentApp.bitTorrentClient.contentManager_26  TotalBytesUploaded:vector  ETV
attr source  ContentManager_TotalBytesUploaded
attr title  "Total of Bytes Uploaded, vector"
attr unit  B
vector 840  BasicTopology.peer[1].bitTorrentApp.bitTorrentClient.contentManager_26  TotalBytesDownloaded:vector  ETV
attr source  ContentManager_TotalBytesDownloaded
attr title  "Total of Bytes Downloaded, vector"
attr unit  B
vector 839  BasicTopology.peer[1].bitTorrentApp.bitTorrentClient.contentManager_26  PiecesDownloaded:vector  ETV
attr source  ContentManager_PieceDownloaded
attr title  "Pieces Downloaded, vector"
vector 841  BasicTopology.peer[1].bitTorrentApp.bitTorrentClient.contentManager_26  TotalBytesUploaded:vector  ETV
attr source  ContentManager_TotalBytesUploaded
attr title  "Total of Bytes Uploaded, vector"
attr unit  B
vector 920  BasicTopology.peer[11].bitTorrentApp.bitTorrentClient.contentManager_26  TotalBytesDownloaded:vector  ETV
attr source  ContentManager_TotalBytesDownloaded
attr title  "Total of Bytes Downloaded, vector"
attr unit  B
vector 872  BasicTopology.peer[5].bitTorrentApp.bitTorrentClient.contentManager_26  TotalBytesDownloaded:vector  ETV
attr source  ContentManager_TotalBytesDownloaded
attr title  "Total of Bytes Downloaded, vector"
attr unit  B
vector 1008  BasicTopology.peer[22].bitTorrentApp.bitTorrentClient.contentManager_26  TotalBytesDownloaded:vector  ETV
attr source  ContentManager_TotalBytesDownloaded
attr title  "Total of Bytes Downloaded, vector"
attr unit  B
vector 928  BasicTopology.peer[12].bitTorrentApp.bitTorrentClient.contentManager_26  TotalBytesDownloaded:vector  ETV
attr source  ContentManager_TotalBytesDownloaded
attr title  "Total of Bytes Downloaded, vector"
attr unit  B
vector 864  BasicTopology.peer[4].bitTorrentApp.bitTorrentClient.contentManager_26  TotalBytesDownloaded:vector  ETV
attr source  ContentManager_TotalBytesDownloaded
attr title  "Total of Bytes Downloaded, vector"
attr unit  B
vector 919  BasicTopology.peer[11].bitTorrentApp.bitTorrentClient.contentManager_26  PiecesDownloaded:vector  ETV
attr source  ContentManager_PieceDownloaded
attr title  "Pieces Downloaded, vector"
vector 921  BasicTopology.peer[11].bitTorrentApp.bitTorrentClient.contentManager_26  TotalBytesUploaded:vector  ETV
attr source  ContentManager_TotalBytesUploaded
attr title  "Total of Bytes Uploaded, vector"
attr unit  B
vector 880  BasicTopology.peer[6].bitTorrentApp.bitTorrentClient.contentManager_26  TotalBytesDownloaded:vector  ETV
attr source  ContentManager_TotalBytesDownloaded
attr title  "Total of Bytes Downloaded, vector"
attr unit  B
vector 871  BasicTopology.peer[5].bitTorrentApp.bitTorrentClient.contentManager_26  PiecesDownloaded:vector  ETV
attr source  ContentManager_PieceDownloaded
attr title  "Pieces Downloaded, vector"
vector 873  BasicTopology.peer[5].bitTorrentApp.bitTorrentClient.contentManager_26  TotalBytesUploaded:vector  ETV
attr source  ContentManager_TotalBytesUploaded
attr title  "Total of Bytes Uploaded, vector"
attr unit  B
vector 936  BasicTopology.peer[13].bitTorrentApp.bitTorrentClient.contentManager_26  TotalBytesDownloaded:vector  ETV
attr source  ContentManager_TotalBytesDownloaded
attr title  "Total of Bytes Downloaded, vector"
attr unit  B
vector 912  BasicTopology.peer[10].bitTorrentApp.bitTorrentClient.contentManager_26  TotalBytesDownloaded:vector  ETV
attr source  ContentManager_TotalBytesDownloaded
attr title  "Total of Bytes Downloaded, vector"
attr unit  B
vector 935  BasicTopology.peer[13].bitTorrentApp.bitTorrentClient.contentManager_26  PiecesDownloaded:vector  ETV
attr source  ContentManager_PieceDownloaded
attr title  "Pieces Downloaded, vector"
vector 937  BasicTopology.peer[13].bitTorrentApp.bitTorrentClient.contentManager_26  TotalBytesUploaded:vector  ETV
attr source  ContentManager_TotalBytesUploaded
attr title  "Total of Bytes Uploaded, vector"
attr unit  B
vector 856  BasicTopology.peer[3].bitTorrentApp.bitTorrentClient.contentManager_26  TotalBytesDownloaded:vector  ETV
attr source  ContentManager_TotalBytesDownloaded
attr title  "Total of Bytes Downloaded, vector"
attr unit  B
vector 896  BasicTopology.peer[8].bitTorrentApp.bitTorrentClient.contentManager_26  TotalBytesDownloaded:vector  ETV
attr source  ContentManager_TotalBytesDownloaded
attr title  "Total of Bytes Downloaded, vector"
attr unit  B
vector 1000  BasicTopology.peer[21].bitTorrentApp.bitTorrentClient.contentManager_26  TotalBytesDownloaded:vector  ETV
attr source  ContentManager_TotalBytesDownloaded
attr title  "Total of Bytes Downloaded, vector"
attr unit  B
vector 911  BasicTopology.peer[10].bitTorrentApp.bitTorrentClient.contentManager_26  PiecesDownloaded:vector  ETV
attr source  ContentManager_PieceDownloaded
attr title  "Pieces Downloaded, vector"
vector 913  BasicTopology.peer[10].bitTorrentApp.bitTorrentClient.contentManager_26  TotalBytesUploaded:vector  ETV
attr source  ContentManager_TotalBytesUploaded
attr title  "Total of Bytes Uploaded, vector"
attr unit  B
vector 863  BasicTopology.peer[4].bitTorrentApp.bitTorrentClient.contentManager_26  PiecesDownloaded:vector  ETV
attr source  ContentManager_PieceDownloaded
attr title  "Pieces Downloaded, vector"
vector 865  BasicTopology.peer[4].bitTorrentApp.bitTorrentClient.contentManager_26  TotalBytesUploaded:vector  ETV
attr source  ContentManager_TotalBytesUploaded
attr title  "Total of Bytes Uploaded, vector"
attr unit  B
vector 888  BasicTopology.peer[7].bitTorrentApp.bitTorrentClient.contentManager_26  TotalBytesDownloaded:vector  ETV
attr source  ContentManager_TotalBytesDownloaded
attr title  "Total of Bytes Downloaded, vector"
attr unit  B
vector 895  BasicTopology.peer[8].bitTorrentApp.bitTorrentClient.contentManager_26  PiecesDownloaded:vector  ETV
attr source  ContentManager_PieceDownloaded
attr title  "Pieces Downloaded, vector"
vector 897  BasicTopology.peer[8].bitTorrentApp.bitTorrentClient.contentManager_26  TotalBytesUploaded:vector  ETV
attr source  ContentManager_TotalBytesUploaded
attr title  "Total of Bytes Uploaded, vector"
attr unit  B
vector 904  BasicTopology.peer[9].bitTorrentApp.bitTorrentClient.contentManager_26  TotalBytesDownloaded:vector  ETV
attr source  ContentManager_TotalBytesDownloaded
attr title  "Total of Bytes Downloaded, vector"
attr unit  B
vector 848  BasicTopology.peer[2].bitTorrentApp.bitTorrentClient.contentManager_26  TotalBytesDownloaded:vector  ETV
attr source  ContentManager_TotalBytesDownloaded
attr title  "Total of Bytes Downloaded, vector"
attr unit  B
vector 1007  BasicTopology.peer[22].bitTorrentApp.bitTorrentClient.contentManager_26  PiecesDownloaded:vector  ETV
attr source  ContentManager_PieceDownloaded
attr title  "Pieces Downloaded, vector"
vector 1009  BasicTopology.peer[22].bitTorrentApp.bitTorrentClient.contentManager_26  TotalBytesUploaded:vector  ETV
attr source  ContentManager_TotalBytesUploaded
attr title  "Total of Bytes Uploaded, vector"
attr unit  B
vector 968  BasicTopology.peer[17].bitTorrentApp.bitTorrentClient.contentManager_26  TotalBytesDownloaded:vector  ETV
attr source  ContentManager_TotalBytesDownloaded
attr title  "Total of Bytes Downloaded, vector"
attr unit  B
vector 879  BasicTopology.peer[6].bitTorrentApp.bitTorrentClient.contentManager_26  PiecesDownloaded:vector  ETV
attr source  ContentManager_PieceDownloaded
attr title  "Pieces Downloaded, vector"
vector 881  BasicTopology.peer[6].bitTorrentApp.bitTorrentClient.contentManager_26  TotalBytesUploaded:vector  ETV
attr source  ContentManager_TotalBytesUploaded
attr title  "Total of Bytes Uploaded, vector"
attr unit  B
vector 903  BasicTopology.peer[9].bitTorrentApp.bitTorrentClient.contentManager_26  PiecesDownloaded:vector  ETV
attr source  ContentManager_PieceDownloaded
attr title  "Pieces Downloaded, vector"
vector 905  BasicTopology.peer[9].bitTorrentApp.bitTorrentClient.contentManager_26  TotalBytesUploaded:vector  ETV
attr source  ContentManager_TotalBytesUploaded
attr title  "Total of Bytes Uploaded, vector"
attr unit  B
vector 927  BasicTopology.peer[12].bitTorrentApp.bitTorrentClient.contentManager_26  PiecesDownloaded:vector  ETV
attr source  ContentManager_PieceDownloaded
attr title  "Pieces Downloaded, vector"
vector 1024  BasicTopology.peer[24].bitTorrentApp.bitTorrentClient.contentManager_26  TotalBytesDownloaded:vector  ETV
attr source  ContentManager_TotalBytesDownloaded
attr title  "Total of Bytes Downloaded, vector"
attr unit  B
vector 855  BasicTopology.peer[3].bitTorrentApp.bitTorrentClient.contentManager_26  PiecesDownloaded:vector  ETV
attr source  ContentManager_PieceDownloaded
attr title  "Pieces Downloaded, vector"
vector 984  BasicTopology.peer[19].bitTorrentApp.bitTorrentClient.contentManager_26  TotalBytesDownloaded:vector  ETV
attr source  ContentManager_TotalBytesDownloaded
attr title  "Total of Bytes Downloaded, vector"
attr unit  B
vector 1016  BasicTopology.peer[23].bitTorrentApp.bitTorrentClient.contentManager_26  TotalBytesDownloaded:vector  ETV
attr source  ContentManager_TotalBytesDownloaded
attr title  "Total of Bytes Downloaded, vector"
attr unit  B
vector 929  BasicTopology.peer[12].bitTorrentApp.bitTorrentClient.contentManager_26  TotalBytesUploaded:vector  ETV
attr source  ContentManager_TotalBytesUploaded
attr title  "Total of Bytes Uploaded, vector"
attr unit  B
vector 952  BasicTopology.peer[15].bitTorrentApp.bitTorrentClient.contentManager_26  TotalBytesDownloaded:vector  ETV
attr source  ContentManager_TotalBytesDownloaded
attr title  "Total of Bytes Downloaded, vector"
attr unit  B
vector 960  BasicTopology.peer[16].bitTorrentApp.bitTorrentClient.contentManager_26  TotalBytesDownloaded:vector  ETV
attr source  ContentManager_TotalBytesDownloaded
attr title  "Total of Bytes Downloaded, vector"
attr unit  B
vector 857  BasicTopology.peer[3].bitTorrentApp.bitTorrentClient.contentManager_26  TotalBytesUploaded:vector  ETV
attr source  ContentManager_TotalBytesUploaded
attr title  "Total of Bytes Uploaded, vector"
attr unit  B
vector 944  BasicTopology.peer[14].bitTorrentApp.bitTorrentClient.contentManager_26  TotalBytesDownloaded:vector  ETV
attr source  ContentManager_TotalBytesDownloaded
attr title  "Total of Bytes Downloaded, vector"
attr unit  B
vector 887  BasicTopology.peer[7].bitTorrentApp.bitTorrentClient.contentManager_26  PiecesDownloaded:vector  ETV
attr source  ContentManager_PieceDownloaded
attr title  "Pieces Downloaded, vector"
vector 999  BasicTopology.peer[21].bitTorrentApp.bitTorrentClient.contentManager_26  PiecesDownloaded:vector  ETV
attr source  ContentManager_PieceDownloaded
attr title  "Pieces Downloaded, vector"
vector 959  BasicTopology.peer[16].bitTorrentApp.bitTorrentClient.contentManager_26  PiecesDownloaded:vector  ETV
attr source  ContentManager_PieceDownloaded
attr title  "Pieces Downloaded, vector"
vector 983  BasicTopology.peer[19].bitTorrentApp.bitTorrentClient.contentManager_26  PiecesDownloaded:vector  ETV
attr source  ContentManager_PieceDownloaded
attr title  "Pieces Downloaded, vector"
vector 951  BasicTopology.peer[15].bitTorrentApp.bitTorrentClient.contentManager_26  PiecesDownloaded:vector  ETV
attr source  ContentManager_PieceDownloaded
attr title  "Pieces Downloaded, vector"
vector 1023  BasicTopology.peer[24].bitTorrentApp.bitTorrentClient.contentManager_26  PiecesDownloaded:vector  ETV
attr source  ContentManager_PieceDownloaded
attr title  "Pieces Downloaded, vector"
vector 943  BasicTopology.peer[14].bitTorrentApp.bitTorrentClient.contentManager_26  PiecesDownloaded:vector  ETV
attr source  ContentManager_PieceDownloaded
attr title  "Pieces Downloaded, vector"
vector 976  BasicTopology.peer[18].bitTorrentApp.bitTorrentClient.contentManager_26  TotalBytesDownloaded:vector  ETV
attr source  ContentManager_TotalBytesDownloaded
attr title  "Total of Bytes Downloaded, vector"
attr unit  B
vector 992  BasicTopology.peer[20].bitTorrentApp.bitTorrentClient.contentManager_26  TotalBytesDownloaded:vector  ETV
attr source  ContentManager_TotalBytesDownloaded
attr title  "Total of Bytes Downloaded, vector"
attr unit  B
vector 847  BasicTopology.peer[2].bitTorrentApp.bitTorrentClient.contentManager_26  PiecesDownloaded:vector  ETV
attr source  ContentManager_PieceDownloaded
attr title  "Pieces Downloaded, vector"
vector 1015  BasicTopology.peer[23].bitTorrentApp.bitTorrentClient.contentManager_26  PiecesDownloaded:vector  ETV
attr source  ContentManager_PieceDownloaded
attr title  "Pieces Downloaded, vector"
vector 849  BasicTopology.peer[2].bitTorrentApp.bitTorrentClient.contentManager_26  TotalBytesUploaded:vector  ETV
attr source  ContentManager_TotalBytesUploaded
attr title  "Total of Bytes Uploaded, vector"
attr unit  B
vector 1017  BasicTopology.peer[23].bitTorrentApp.bitTorrentClient.contentManager_26  TotalBytesUploaded:vector  ETV
attr source  ContentManager_TotalBytesUploaded
attr title  "Total of Bytes Uploaded, vector"
attr unit  B
vector 1001  BasicTopology.peer[21].bitTorrentApp.bitTorrentClient.contentManager_26  TotalBytesUploaded:vector  ETV
attr source  ContentManager_TotalBytesUploaded
attr title  "Total of Bytes Uploaded, vector"
attr unit  B
vector 991  BasicTopology.peer[20].bitTorrentApp.bitTorrentClient.contentManager_26  PiecesDownloaded:vector  ETV
attr source  ContentManager_PieceDownloaded
attr title  "Pieces Downloaded, vector"
vector 993  BasicTopology.peer[20].bitTorrentApp.bitTorrentClient.contentManager_26  TotalBytesUploaded:vector  ETV
attr source  ContentManager_TotalBytesUploaded
attr title  "Total of Bytes Uploaded, vector"
attr unit  B
vector 967  BasicTopology.peer[17].bitTorrentApp.bitTorrentClient.contentManager_26  PiecesDownloaded:vector  ETV
attr source  ContentManager_PieceDownloaded
attr title  "Pieces Downloaded, vector"
vector 975  BasicTopology.peer[18].bitTorrentApp.bitTorrentClient.contentManager_26  PiecesDownloaded:vector  ETV
attr source  ContentManager_PieceDownloaded
attr title  "Pieces Downloaded, vector"
vector 1025  BasicTopology.peer[24].bitTorrentApp.bitTorrentClient.contentManager_26  TotalBytesUploaded:vector  ETV
attr source  ContentManager_TotalBytesUploaded
attr title  "Total of Bytes Uploaded, vector"
attr unit  B
vector 953  BasicTopology.peer[15].bitTorrentApp.bitTorrentClient.contentManager_26  TotalBytesUploaded:vector  ETV
attr source  ContentManager_TotalBytesUploaded
attr title  "Total of Bytes Uploaded, vector"
attr unit  B
vector 945  BasicTopology.peer[14].bitTorrentApp.bitTorrentClient.contentManager_26  TotalBytesUploaded:vector  ETV
attr source  ContentManager_TotalBytesUploaded
attr title  "Total of Bytes Uploaded, vector"
attr unit  B
vector 985  BasicTopology.peer[19].bitTorrentApp.bitTorrentClient.contentManager_26  TotalBytesUploaded:vector  ETV
attr source  ContentManager_TotalBytesUploaded
attr title  "Total of Bytes Uploaded, vector"
attr unit  B
3	85	36001	36001
3	27282002	36047.740565306076	36047.740565306
5	86	36001	36001
5	56469762	36097.478053641763	36097.478053642
7	87	36001	36001
7	64899267	36115.62510121516	36115.625101215
9	88	36001	36001
9	62873086	36110.434352587203	36110.434352587
11	89	36001	36001
11	60988802	36106.124473196501	36106.124473197
13	90	36001	36001
13	66959291	36120.407257391994	36120.407257392
15	91	36001	36001
15	78658679	36306.468720638825	36306.468720639
17	92	36001	36001
17	77359829	36157.670172539245	36157.670172539
19	93	36001	36001
19	61890178	36108.230649635741	36108.230649636
21	94	36001	36001
21	33810493	36057.960670527073	36057.960670527
23	95	36001	36001
23	51425923	36087.739836053275	36087.739836053
25	96	36001	36001
25	67684819	36122.238374378842	36122.238374379
27	97	36001	36001
27	68787088	36125.1767048183	36125.176704818
29	98	36001	36001
29	73916540	36137.485977255325	36137.485977255
31	99	36001	36001
31	64179979	36114.036411184242	36114.036411184
33	100	36001	36001
33	66662529	36119.837206284028	36119.837206284
35	101	36001	36001
35	78186442	36302.893427386447	36302.893427386
37	102	36001	36001
37	69705150	36127.15951710354	36127.159517104
39	103	36001	36001
39	76299864	36147.654597693782	36147.654597694
41	104	36001	36001
41	70653108	36129.357153767632	36129.357153768
43	105	36001	36001
43	60760379	36105.666190887537	36105.666190888
45	106	36001	36001
45	67057838	36120.766848053293	36120.766848053
47	107	36001	36001
47	62824164	36110.32347537544	36110.323475375
49	108	36001	36001
49	63593403	36112.144987565774	36112.144987566
833	176980	36001.191062723745	32768
833	177099	36001.191214629143	65536
833	177217	36001.19136190299	98304
833	177740	36001.192234045421	131072
833	178828	36001.193584078206	163840
833	180652	36001.196803751405	196608
833	188992	36001.207647525234	229376
833	191151	36001.233198906703	262144
833	191153	36001.233612324944	294912
833	191155	36001.236600116766	327680
833	400297	36002.177496229401	360448
833	401531	36002.182494665711	393216
833	406266	36002.198845012947	425984
833	406930	36002.201707805558	458752
833	411250	36002.218711734718	491520
833	412087	36002.221372086193	524288
833	412262	36002.222085585849	557056
833	412579	36002.223060823487	589824
833	412725	36002.22357188244	622592
833	413084	36002.232664414658	655360
833	421272	36002.423857330613	688128
833	435058	36002.469227580493	720896
833	530107	36002.577160856045	753664
833	536875	36002.585134337105	786432
833	537976	36002.586644095944	819200
833	552821	36002.613287498072	851968
833	557234	36002.62355453915	884736
833	557422	36002.6241479593	917504
833	563041	36002.641373049923	950272
833	563949	36002.642816246774	983040
833	564568	36002.643508696138	1015808
833	566606	36002.654765208483	1048576
833	643200	36003.537699982357	1081344
833	657174	36003.583028129294	1114112
833	669542	36003.623137632541	1146880
833	684408	36003.668244996009	1179648
833	699922	36003.717583511909	1212416
833	817888	36004.101368103507	1245184
833	818115	36004.10155553194	1277952
833	821413	36004.105641418351	1310720
833	825053	36004.110180784446	1343488
833	827757	36004.113458639128	1376256
833	827942	36004.113916050196	1409024
833	840967	36004.12925599938	1441792
833	854646	36004.142926920442	1474560
833	855487	36004.143677809263	1507328
833	869193	36004.156415908024	1540096
833	1310131	36005.572268100071	1572864
833	1325265	36005.605484917007	1605632
833	1342127	36005.768496245905	1638400
833	1343083	36005.77156521118	1671168
833	1345793	36005.781196333191	1703936
833	1349037	36005.792617708629	1736704
833	1349210	36005.79298818053	1769472
833	1349480	36005.793849770517	1802240
833	1350957	36005.79862686916	1835008
833	1352184	36005.802592218942	1867776
833	1359606	36005.828114832665	1900544
833	1360898	36005.832532298417	1933312
833	1361762	36005.835368675261	1966080
833	1506312	36006.342774187161	1998848
833	1553593	36006.440571397915	2031616
833	1605482	36006.548893118543	2064384
833	1662647	36006.870597349753	2097152
833	1662649	36006.878416805247	2129920
833	1662651	36006.879894445822	2162688
833	1662653	36006.882056371237	2195456
833	1710143	36007.07244752512	2228224
833	1751526	36007.153996398803	2260992
833	1771781	36007.218935907118	2293760
833	1793889	36007.286691367477	2326528
833	1908000	36007.728753958544	2359296
833	1924895	36007.780554632697	2392064
833	1940015	36007.823825818106	2424832
833	1957103	36007.875059387826	2457600
833	1972774	36007.922111179044	2490368
833	1998491	36007.984450437416	2523136
833	2092350	36008.167560242598	2555904
833	2127834	36008.235307014199	2588672
833	2242367	36008.698735269132	2621440
833	2392625	36009.105487070629	2654208
833	2942008	36010.241048085267	2686976
833	3045652	36010.461993350566	2719744
833	3608789	36011.368096829378	2752512
833	3905234	36011.815798346197	2785280
833	4113543	36012.325037936989	2818048
833	4147743	36012.383300700522	2850816
833	4184026	36012.444432999358	2883584
833	4210581	36012.487527761792	2916352
833	4248566	36012.539725138887	2949120
833	4280249	36012.593695764711	2981888
833	4328700	36012.671081989234	3014656
833	4497205	36012.91281037032	3047424
833	4565303	36012.996773818676	3080192
833	4699578	36013.16900627257	3112960
833	4950197	36013.692649688925	3145728
833	4997183	36013.772230881123	3178496
833	5618037	36014.734906319649	3211264
833	5631989	36014.751261574033	3244032
833	5634735	36014.75584574528	3276800
833	5634868	36014.756104472982	3309568
833	5635159	36014.756469719815	3342336
833	5678140	36014.817215752755	3375104
833	5741570	36014.908761946284	3407872
833	5865614	36015.100951089373	3440640
833	5908691	36015.177707557194	3473408
833	5958078	36015.256383007096	3506176
833	6023543	36015.355152984291	3538944
833	6055049	36015.393481983398	3571712
833	6373690	36015.96952235598	3604480
833	6406038	36016.011458698882	3637248
833	6406139	36016.011571865486	3670016
833	6501011	36016.139506764762	3702784
833	6593842	36016.263174749711	3735552
833	6607160	36016.282322557204	3768320
833	6748336	36016.475857069278	3801088
833	6820834	36016.573362681377	3833856
833	7344659	36017.349437447079	3866624
833	7410269	36017.43640065843	3899392
833	7613739	36017.695460951428	3932160
833	7693658	36017.817081300447	3964928
833	8184543	36018.552410448619	3997696
833	8189049	36018.558090063128	4030464
833	8275393	36018.668635698385	4063232
833	8316587	36018.725730107752	4096000
833	8692668	36019.349789406392	4128768
833	8774838	36019.47578147397	4161536
833	8837807	36019.566156765679	4194304
833	8904961	36019.671426250269	4227072
833	9025890	36019.831649208255	4259840
833	9076933	36019.899764566669	4292608
833	9133455	36019.969206107364	4325376
833	9216152	36020.075815686674	4358144
833	9823985	36021.008382252648	4390912
833	9897770	36021.130628541853	4423680
833	9928355	36021.176983157348	4456448
833	9936063	36021.188384016278	4489216
833	9960130	36021.223304310249	4521984
833	9960132	36021.223326206722	4554752
833	9962176	36021.226125825331	4587520
833	9964373	36021.228548631911	4620288
833	9968447	36021.233471116301	4653056
833	9970653	36021.235817494212	4685824
833	9972116	36021.237177862012	4718592
833	9973595	36021.238823744176	4751360
833	10639154	36022.222396393409	4784128
833	10678950	36022.280184247024	4816896
833	11388348	36023.407678021708	4849664
833	11468656	36023.514189945693	4882432
833	12384487	36025.138425985853	4915200
833	13101830	36026.516625051612	4947968
833	13653273	36027.648321919916	4980736
833	13759717	36027.847751621448	5013504
833	13782114	36027.885316527486	5046272
833	13823925	36027.966828124962	5079040
833	13882274	36028.055256558784	5111808
833	13951431	36028.186011148523	5144576
833	14019982	36028.313417055379	5177344
833	14064885	36028.376888172382	5210112
833	15462699	36030.617750704201	5242880
833	16866556	36032.720819184826	5275648
833	16951290	36032.838431755457	5308416
833	17019413	36032.945206603411	5341184
833	17784790	36034.113620182534	5373952
833	17864942	36034.227631719752	5406720
833	18006466	36034.442500883472	5439488
833	18052969	36034.502872038169	5472256
833	18086430	36034.549911395656	5505024
833	18126111	36034.606334640763	5537792
833	18826350	36035.661847864606	5570560
833	21346012	36039.117401603931	5603328
833	21408120	36039.19895005756	5636096
833	22216753	36040.297641813154	5668864
833	22330982	36040.449432262675	5701632
833	24411155	36043.581128790213	5734400
833	24631224	36043.884844265187	5767168
833	25980752	36045.855537397299	5799936
833	26032727	36045.929114017673	5832704
833	26108393	36046.019667255732	5865472
833	26197227	36046.120908252504	5898240
833	26210914	36046.140672686477	5931008
833	26211758	36046.142242759712	5963776
833	26224973	36046.160861650346	5996544
833	26238736	36046.185345127801	6029312
833	26243520	36046.194708495247	6062080
833	26243704	36046.195213390425	6094848
833	26247227	36046.203841389157	6127616
833	26249989	36046.208482653125	6160384
833	26253342	36046.214490210875	6193152
833	26271175	36046.247741584668	6225920
833	26271547	36046.248360736212	6258688
833	26272649	36046.250788858161	6291456
833	26950317	36047.315905539096	6324224
833	27029433	36047.427731892249	6356992
833	28565281	36049.559478233504	6389760
833	29246176	36050.624535867957	6422528
833	29566137	36051.171403010358	6455296
833	29566906	36051.17237754051	6488064
833	29567024	36051.172586914817	6520832
833	29567661	36051.173604933739	6553600
833	29568660	36051.174760407507	6586368
833	29574521	36051.184776943802	6619136
833	29575339	36051.186203777802	6651904
833	29576148	36051.187464505501	6684672
833	29579668	36051.19341733284	6717440
833	29580417	36051.194670877996	6750208
833	29588661	36051.208002328143	6782976
833	29596181	36051.218646500865	6815744
833	29596266	36051.218730801087	6848512
833	29606151	36051.235021029675	6881280
833	29613812	36051.246010762179	6914048
833	29627373	36051.265339666	6946816
833	29627550	36051.265695457383	6979584