version 2
run Test-1-20200526-12:13:45-5153
attr configname Test
attr datetime 20200526-12:13:45
attr experiment "\"Simulation Test\""
attr inifile BasicConfig.ini
attr iterationvars ""
attr iterationvars2 $repetition=1
attr measurement "\"Peers: $peers, Rate: $rate\""
attr network BasicTopology
attr processid 5153
attr repetition 1
attr replication #1
attr resultdir results
attr runnumber 1
attr seedset 1

vector 3  BasicTopology.peer[1].bitTorrentApp.bitTorrentClient  DownloadComplete_Test:vector  ETV
attr source  BitTorrentClient_DownloadComplete_Test
attr title  "Descargas completas (prueba), vector"
vector 5  BasicTopology.peer[2].bitTorrentApp.bitTorrentClient  DownloadComplete_Test:vector  ETV
attr source  BitTorrentClient_DownloadComplete_Test
attr title  "Descargas completas (prueba), vector"
vector 7  BasicTopology.peer[3].bitTorrentApp.bitTorrentClient  DownloadComplete_Test:vector  ETV
attr source  BitTorrentClient_DownloadComplete_Test
attr title  "Descargas completas (prueba), vector"
vector 9  BasicTopology.peer[4].bitTorrentApp.bitTorrentClient  DownloadComplete_Test:vector  ETV
attr source  BitTorrentClient_DownloadComplete_Test
attr title  "Descargas completas (prueba), vector"
vector 11  BasicTopology.peer[5].bitTorrentApp.bitTorrentClient  DownloadComplete_Test:vector  ETV
attr source  BitTorrentClient_DownloadComplete_Test
attr title  "Descargas completas (prueba), vector"
vector 13  BasicTopology.peer[6].bitTorrentApp.bitTorrentClient  DownloadComplete_Test:vector  ETV
attr source  BitTorrentClient_DownloadComplete_Test
attr title  "Descargas completas (prueba), vector"
vector 15  BasicTopology.peer[7].bitTorrentApp.bitTorrentClient  DownloadComplete_Test:vector  ETV
attr source  BitTorrentClient_DownloadComplete_Test
attr title  "Descargas completas (prueba), vector"
vector 17  BasicTopology.peer[8].bitTorrentApp.bitTorrentClient  DownloadComplete_Test:vector  ETV
attr source  BitTorrentClient_DownloadComplete_Test
attr title  "Descargas completas (prueba), vector"
vector 19  BasicTopology.peer[9].bitTorrentApp.bitTorrentClient  DownloadComplete_Test:vector  ETV
attr source  BitTorrentClient_DownloadComplete_Test
attr title  "Descargas completas (prueba), vector"
vector 21  BasicTopology.peer[10].bitTorrentApp.bitTorrentClient  DownloadComplete_Test:vector  ETV
attr source  BitTorrentClient_DownloadComplete_Test
attr title  "Descargas completas (prueba), vector"
vector 23  BasicTopology.peer[11].bitTorrentApp.bitTorrentClient  DownloadComplete_Test:vector  ETV
attr source  BitTorrentClient_DownloadComplete_Test
attr title  "Descargas completas (prueba), vector"
vector 25  BasicTopology.peer[12].bitTorrentApp.bitTorrentClient  DownloadComplete_Test:vector  ETV
attr source  BitTorrentClient_DownloadComplete_Test
attr title  "Descargas completas (prueba), vector"
vector 27  BasicTopology.peer[13].bitTorrentApp.bitTorrentClient  DownloadComplete_Test:vector  ETV
attr source  BitTorrentClient_DownloadComplete_Test
attr title  "Descargas completas (prueba), vector"
vector 29  BasicTopology.peer[14].bitTorrentApp.bitTorrentClient  DownloadComplete_Test:vector  ETV
attr source  BitTorrentClient_DownloadComplete_Test
attr title  "Descargas completas (prueba), vector"
vector 31  BasicTopology.peer[15].bitTorrentApp.bitTorrentClient  DownloadComplete_Test:vector  ETV
attr source  BitTorrentClient_DownloadComplete_Test
attr title  "Descargas completas (prueba), vector"
vector 33  BasicTopology.peer[16].bitTorrentApp.bitTorrentClient  DownloadComplete_Test:vector  ETV
attr source  BitTorrentClient_DownloadComplete_Test
attr title  "Descargas completas (prueba), vector"
vector 35  BasicTopology.peer[17].bitTorrentApp.bitTorrentClient  DownloadComplete_Test:vector  ETV
attr source  BitTorrentClient_DownloadComplete_Test
attr title  "Descargas completas (prueba), vector"
vector 37  BasicTopology.peer[18].bitTorrentApp.bitTorrentClient  DownloadComplete_Test:vector  ETV
attr source  BitTorrentClient_DownloadComplete_Test
attr title  "Descargas completas (prueba), vector"
vector 39  BasicTopology.peer[19].bitTorrentApp.bitTorrentClient  DownloadComplete_Test:vector  ETV
attr source  BitTorrentClient_DownloadComplete_Test
attr title  "Descargas completas (prueba), vector"
vector 41  BasicTopology.peer[20].bitTorrentApp.bitTorrentClient  DownloadComplete_Test:vector  ETV
attr source  BitTorrentClient_DownloadComplete_Test
attr title  "Descargas completas (prueba), vector"
vector 43  BasicTopology.peer[21].bitTorrentApp.bitTorrentClient  DownloadComplete_Test:vector  ETV
attr source  BitTorrentClient_DownloadComplete_Test
attr title  "Descargas completas (prueba), vector"
vector 45  BasicTopology.peer[22].bitTorrentApp.bitTorrentClient  DownloadComplete_Test:vector  ETV
attr source  BitTorrentClient_DownloadComplete_Test
attr title  "Descargas completas (prueba), vector"
vector 47  BasicTopology.peer[23].bitTorrentApp.bitTorrentClient  DownloadComplete_Test:vector  ETV
attr source  BitTorrentClient_DownloadComplete_Test
attr title  "Descargas completas (prueba), vector"
vector 49  BasicTopology.peer[24].bitTorrentApp.bitTorrentClient  DownloadComplete_Test:vector  ETV
attr source  BitTorrentClient_DownloadComplete_Test
attr title  "Descargas completas (prueba), vector"
vector 833  BasicTopology.peer[0].bitTorrentApp.bitTorrentClient.contentManager_26  TotalBytesUploaded:vector  ETV
attr source  ContentManager_TotalBytesUploaded
attr title  "Total of Bytes Uploaded, vector"
attr unit  B
vector 928  BasicTopology.peer[12].bitTorrentApp.bitTorrentClient.contentManager_26  TotalBytesDownloaded:vector  ETV
attr source  ContentManager_TotalBytesDownloaded
attr title  "Total of Bytes Downloaded, vector"
attr unit  B
vector 920  BasicTopology.peer[11].bitTorrentApp.bitTorrentClient.contentManager_26  TotalBytesDownloaded:vector  ETV
attr source  ContentManager_TotalBytesDownloaded
attr title  "Total of Bytes Downloaded, vector"
attr unit  B
vector 840  BasicTopology.peer[1].bitTorrentApp.bitTorrentClient.contentManager_26  TotalBytesDownloaded:vector  ETV
attr source  ContentManager_TotalBytesDownloaded
attr title  "Total of Bytes Downloaded, vector"
attr unit  B
vector 839  BasicTopology.peer[1].bitTorrentApp.bitTorrentClient.contentManager_26  PiecesDownloaded:vector  ETV
attr source  ContentManager_PieceDownloaded
attr title  "Pieces Downloaded, vector"
vector 841  BasicTopology.peer[1].bitTorrentApp.bitTorrentClient.contentManager_26  TotalBytesUploaded:vector  ETV
attr source  ContentManager_TotalBytesUploaded
attr title  "Total of Bytes Uploaded, vector"
attr unit  B
vector 919  BasicTopology.peer[11].bitTorrentApp.bitTorrentClient.contentManager_26  PiecesDownloaded:vector  ETV
attr source  ContentManager_PieceDownloaded
attr title  "Pieces Downloaded, vector"
vector 921  BasicTopology.peer[11].bitTorrentApp.bitTorrentClient.contentManager_26  TotalBytesUploaded:vector  ETV
attr source  ContentManager_TotalBytesUploaded
attr title  "Total of Bytes Uploaded, vector"
attr unit  B
vector 856  BasicTopology.peer[3].bitTorrentApp.bitTorrentClient.contentManager_26  TotalBytesDownloaded:vector  ETV
attr source  ContentManager_TotalBytesDownloaded
attr title  "Total of Bytes Downloaded, vector"
attr unit  B
vector 1008  BasicTopology.peer[22].bitTorrentApp.bitTorrentClient.contentManager_26  TotalBytesDownloaded:vector  ETV
attr source  ContentManager_TotalBytesDownloaded
attr title  "Total of Bytes Downloaded, vector"
attr unit  B
vector 952  BasicTopology.peer[15].bitTorrentApp.bitTorrentClient.contentManager_26  TotalBytesDownloaded:vector  ETV
attr source  ContentManager_TotalBytesDownloaded
attr title  "Total of Bytes Downloaded, vector"
attr unit  B
vector 855  BasicTopology.peer[3].bitTorrentApp.bitTorrentClient.contentManager_26  PiecesDownloaded:vector  ETV
attr source  ContentManager_PieceDownloaded
attr title  "Pieces Downloaded, vector"
vector 857  BasicTopology.peer[3].bitTorrentApp.bitTorrentClient.contentManager_26  TotalBytesUploaded:vector  ETV
attr source  ContentManager_TotalBytesUploaded
attr title  "Total of Bytes Uploaded, vector"
attr unit  B
vector 880  BasicTopology.peer[6].bitTorrentApp.bitTorrentClient.contentManager_26  TotalBytesDownloaded:vector  ETV
attr source  ContentManager_TotalBytesDownloaded
attr title  "Total of Bytes Downloaded, vector"
attr unit  B
vector 944  BasicTopology.peer[14].bitTorrentApp.bitTorrentClient.contentManager_26  TotalBytesDownloaded:vector  ETV
attr source  ContentManager_TotalBytesDownloaded
attr title  "Total of Bytes Downloaded, vector"
attr unit  B
vector 864  BasicTopology.peer[4].bitTorrentApp.bitTorrentClient.contentManager_26  TotalBytesDownloaded:vector  ETV
attr source  ContentManager_TotalBytesDownloaded
attr title  "Total of Bytes Downloaded, vector"
attr unit  B
vector 936  BasicTopology.peer[13].bitTorrentApp.bitTorrentClient.contentManager_26  TotalBytesDownloaded:vector  ETV
attr source  ContentManager_TotalBytesDownloaded
attr title  "Total of Bytes Downloaded, vector"
attr unit  B
vector 912  BasicTopology.peer[10].bitTorrentApp.bitTorrentClient.contentManager_26  TotalBytesDownloaded:vector  ETV
attr source  ContentManager_TotalBytesDownloaded
attr title  "Total of Bytes Downloaded, vector"
attr unit  B
vector 896  BasicTopology.peer[8].bitTorrentApp.bitTorrentClient.contentManager_26  TotalBytesDownloaded:vector  ETV
attr source  ContentManager_TotalBytesDownloaded
attr title  "Total of Bytes Downloaded, vector"
attr unit  B
vector 943  BasicTopology.peer[14].bitTorrentApp.bitTorrentClient.contentManager_26  PiecesDownloaded:vector  ETV
attr source  ContentManager_PieceDownloaded
attr title  "Pieces Downloaded, vector"
vector 945  BasicTopology.peer[14].bitTorrentApp.bitTorrentClient.contentManager_26  TotalBytesUploaded:vector  ETV
attr source  ContentManager_TotalBytesUploaded
attr title  "Total of Bytes Uploaded, vector"
attr unit  B
vector 879  BasicTopology.peer[6].bitTorrentApp.bitTorrentClient.contentManager_26  PiecesDownloaded:vector  ETV
attr source  ContentManager_PieceDownloaded
attr title  "Pieces Downloaded, vector"
vector 881  BasicTopology.peer[6].bitTorrentApp.bitTorrentClient.contentManager_26  TotalBytesUploaded:vector  ETV
attr source  ContentManager_TotalBytesUploaded
attr title  "Total of Bytes Uploaded, vector"
attr unit  B
vector 1007  BasicTopology.peer[22].bitTorrentApp.bitTorrentClient.contentManager_26  PiecesDownloaded:vector  ETV
attr source  ContentManager_PieceDownloaded
attr title  "Pieces Downloaded, vector"
vector 1009  BasicTopology.peer[22].bitTorrentApp.bitTorrentClient.contentManager_26  TotalBytesUploaded:vector  ETV
attr source  ContentManager_TotalBytesUploaded
attr title  "Total of Bytes Uploaded, vector"
attr unit  B
vector 960  BasicTopology.peer[16].bitTorrentApp.bitTorrentClient.contentManager_26  TotalBytesDownloaded:vector  ETV
attr source  ContentManager_TotalBytesDownloaded
attr title  "Total of Bytes Downloaded, vector"
attr unit  B
vector 904  BasicTopology.peer[9].bitTorrentApp.bitTorrentClient.contentManager_26  TotalBytesDownloaded:vector  ETV
attr source  ContentManager_TotalBytesDownloaded
attr title  "Total of Bytes Downloaded, vector"
attr unit  B
vector 848  BasicTopology.peer[2].bitTorrentApp.bitTorrentClient.contentManager_26  TotalBytesDownloaded:vector  ETV
attr source  ContentManager_TotalBytesDownloaded
attr title  "Total of Bytes Downloaded, vector"
attr unit  B
vector 984  BasicTopology.peer[19].bitTorrentApp.bitTorrentClient.contentManager_26  TotalBytesDownloaded:vector  ETV
attr source  ContentManager_TotalBytesDownloaded
attr title  "Total of Bytes Downloaded, vector"
attr unit  B
vector 872  BasicTopology.peer[5].bitTorrentApp.bitTorrentClient.contentManager_26  TotalBytesDownloaded:vector  ETV
attr source  ContentManager_TotalBytesDownloaded
attr title  "Total of Bytes Downloaded, vector"
attr unit  B
vector 927  BasicTopology.peer[12].bitTorrentApp.bitTorrentClient.contentManager_26  PiecesDownloaded:vector  ETV
attr source  ContentManager_PieceDownloaded
attr title  "Pieces Downloaded, vector"
vector 929  BasicTopology.peer[12].bitTorrentApp.bitTorrentClient.contentManager_26  TotalBytesUploaded:vector  ETV
attr source  ContentManager_TotalBytesUploaded
attr title  "Total of Bytes Uploaded, vector"
attr unit  B
vector 935  BasicTopology.peer[13].bitTorrentApp.bitTorrentClient.contentManager_26  PiecesDownloaded:vector  ETV
attr source  ContentManager_PieceDownloaded
attr title  "Pieces Downloaded, vector"
vector 937  BasicTopology.peer[13].bitTorrentApp.bitTorrentClient.contentManager_26  TotalBytesUploaded:vector  ETV
attr source  ContentManager_TotalBytesUploaded
attr title  "Total of Bytes Uploaded, vector"
attr unit  B
vector 847  BasicTopology.peer[2].bitTorrentApp.bitTorrentClient.contentManager_26  PiecesDownloaded:vector  ETV
attr source  ContentManager_PieceDownloaded
attr title  "Pieces Downloaded, vector"
vector 871  BasicTopology.peer[5].bitTorrentApp.bitTorrentClient.contentManager_26  PiecesDownloaded:vector  ETV
attr source  ContentManager_PieceDownloaded
attr title  "Pieces Downloaded, vector"
vector 983  BasicTopology.peer[19].bitTorrentApp.bitTorrentClient.contentManager_26  PiecesDownloaded:vector  ETV
attr source  ContentManager_PieceDownloaded
attr title  "Pieces Downloaded, vector"
vector 992  BasicTopology.peer[20].bitTorrentApp.bitTorrentClient.contentManager_26  TotalBytesDownloaded:vector  ETV
attr source  ContentManager_TotalBytesDownloaded
attr title  "Total of Bytes Downloaded, vector"
attr unit  B
vector 1000  BasicTopology.peer[21].bitTorrentApp.bitTorrentClient.contentManager_26  TotalBytesDownloaded:vector  ETV
attr source  ContentManager_TotalBytesDownloaded
attr title  "Total of Bytes Downloaded, vector"
attr unit  B
vector 1024  BasicTopology.peer[24].bitTorrentApp.bitTorrentClient.contentManager_26  TotalBytesDownloaded:vector  ETV
attr source  ContentManager_TotalBytesDownloaded
attr title  "Total of Bytes Downloaded, vector"
attr unit  B
vector 849  BasicTopology.peer[2].bitTorrentApp.bitTorrentClient.contentManager_26  TotalBytesUploaded:vector  ETV
attr source  ContentManager_TotalBytesUploaded
attr title  "Total of Bytes Uploaded, vector"
attr unit  B
vector 1016  BasicTopology.peer[23].bitTorrentApp.bitTorrentClient.contentManager_26  TotalBytesDownloaded:vector  ETV
attr source  ContentManager_TotalBytesDownloaded
attr title  "Total of Bytes Downloaded, vector"
attr unit  B
vector 959  BasicTopology.peer[16].bitTorrentApp.bitTorrentClient.contentManager_26  PiecesDownloaded:vector  ETV
attr source  ContentManager_PieceDownloaded
attr title  "Pieces Downloaded, vector"
vector 961  BasicTopology.peer[16].bitTorrentApp.bitTorrentClient.contentManager_26  TotalBytesUploaded:vector  ETV
attr source  ContentManager_TotalBytesUploaded
attr title  "Total of Bytes Uploaded, vector"
attr unit  B
vector 968  BasicTopology.peer[17].bitTorrentApp.bitTorrentClient.contentManager_26  TotalBytesDownloaded:vector  ETV
attr source  ContentManager_TotalBytesDownloaded
attr title  "Total of Bytes Downloaded, vector"
attr unit  B
vector 951  BasicTopology.peer[15].bitTorrentApp.bitTorrentClient.contentManager_26  PiecesDownloaded:vector  ETV
attr source  ContentManager_PieceDownloaded
attr title  "Pieces Downloaded, vector"
vector 991  BasicTopology.peer[20].bitTorrentApp.bitTorrentClient.contentManager_26  PiecesDownloaded:vector  ETV
attr source  ContentManager_PieceDownloaded
attr title  "Pieces Downloaded, vector"
vector 993  BasicTopology.peer[20].bitTorrentApp.bitTorrentClient.contentManager_26  TotalBytesUploaded:vector  ETV
attr source  ContentManager_TotalBytesUploaded
attr title  "Total of Bytes Uploaded, vector"
attr unit  B
vector 1023  BasicTopology.peer[24].bitTorrentApp.bitTorrentClient.contentManager_26  PiecesDownloaded:vector  ETV
attr source  ContentManager_PieceDownloaded
attr title  "Pieces Downloaded, vector"
vector 863  BasicTopology.peer[4].bitTorrentApp.bitTorrentClient.contentManager_26  PiecesDownloaded:vector  ETV
attr source  ContentManager_PieceDownloaded
attr title  "Pieces Downloaded, vector"
vector 888  BasicTopology.peer[7].bitTorrentApp.bitTorrentClient.contentManager_26  TotalBytesDownloaded:vector  ETV
attr source  ContentManager_TotalBytesDownloaded
attr title  "Total of Bytes Downloaded, vector"
attr unit  B
vector 911  BasicTopology.peer[10].bitTorrentApp.bitTorrentClient.contentManager_26  PiecesDownloaded:vector  ETV
attr source  ContentManager_PieceDownloaded
attr title  "Pieces Downloaded, vector"
vector 976  BasicTopology.peer[18].bitTorrentApp.bitTorrentClient.contentManager_26  TotalBytesDownloaded:vector  ETV
attr source  ContentManager_TotalBytesDownloaded
attr title  "Total of Bytes Downloaded, vector"
attr unit  B
vector 999  BasicTopology.peer[21].bitTorrentApp.bitTorrentClient.contentManager_26  PiecesDownloaded:vector  ETV
attr source  ContentManager_PieceDownloaded
attr title  "Pieces Downloaded, vector"
vector 903  BasicTopology.peer[9].bitTorrentApp.bitTorrentClient.contentManager_26  PiecesDownloaded:vector  ETV
attr source  ContentManager_PieceDownloaded
attr title  "Pieces Downloaded, vector"
vector 1015  BasicTopology.peer[23].bitTorrentApp.bitTorrentClient.contentManager_26  PiecesDownloaded:vector  ETV
attr source  ContentManager_PieceDownloaded
attr title  "Pieces Downloaded, vector"
vector 865  BasicTopology.peer[4].bitTorrentApp.bitTorrentClient.contentManager_26  TotalBytesUploaded:vector  ETV
attr source  ContentManager_TotalBytesUploaded
attr title  "Total of Bytes Uploaded, vector"
attr unit  B
vector 1001  BasicTopology.peer[21].bitTorrentApp.bitTorrentClient.contentManager_26  TotalBytesUploaded:vector  ETV
attr source  ContentManager_TotalBytesUploaded
attr title  "Total of Bytes Uploaded, vector"
attr unit  B
vector 895  BasicTopology.peer[8].bitTorrentApp.bitTorrentClient.contentManager_26  PiecesDownloaded:vector  ETV
attr source  ContentManager_PieceDownloaded
attr title  "Pieces Downloaded, vector"
vector 913  BasicTopology.peer[10].bitTorrentApp.bitTorrentClient.contentManager_26  TotalBytesUploaded:vector  ETV
attr source  ContentManager_TotalBytesUploaded
attr title  "Total of Bytes Uploaded, vector"
attr unit  B
vector 967  BasicTopology.peer[17].bitTorrentApp.bitTorrentClient.contentManager_26  PiecesDownloaded:vector  ETV
attr source  ContentManager_PieceDownloaded
attr title  "Pieces Downloaded, vector"
vector 975  BasicTopology.peer[18].bitTorrentApp.bitTorrentClient.contentManager_26  PiecesDownloaded:vector  ETV
attr source  ContentManager_PieceDownloaded
attr title  "Pieces Downloaded, vector"
vector 1017  BasicTopology.peer[23].bitTorrentApp.bitTorrentClient.contentManager_26  TotalBytesUploaded:vector  ETV
attr source  ContentManager_TotalBytesUploaded
attr title  "Total of Bytes Uploaded, vector"
attr unit  B
vector 897  BasicTopology.peer[8].bitTorrentApp.bitTorrentClient.contentManager_26  TotalBytesUploaded:vector  ETV
attr source  ContentManager_TotalBytesUploaded
attr title  "Total of Bytes Uploaded, vector"
attr unit  B
vector 887  BasicTopology.peer[7].bitTorrentApp.bitTorrentClient.contentManager_26  PiecesDownloaded:vector  ETV
attr source  ContentManager_PieceDownloaded
attr title  "Pieces Downloaded, vector"
vector 1025  BasicTopology.peer[24].bitTorrentApp.bitTorrentClient.contentManager_26  TotalBytesUploaded:vector  ETV
attr source  ContentManager_TotalBytesUploaded
attr title  "Total of Bytes Uploaded, vector"
attr unit  B
vector 953  BasicTopology.peer[15].bitTorrentApp.bitTorrentClient.contentManager_26  TotalBytesUploaded:vector  ETV
attr source  ContentManager_TotalBytesUploaded
attr title  "Total of Bytes Uploaded, vector"
attr unit  B
vector 873  BasicTopology.peer[5].bitTorrentApp.bitTorrentClient.contentManager_26  TotalBytesUploaded:vector  ETV
attr source  ContentManager_TotalBytesUploaded
attr title  "Total of Bytes Uploaded, vector"
attr unit  B
vector 905  BasicTopology.peer[9].bitTorrentApp.bitTorrentClient.contentManager_26  TotalBytesUploaded:vector  ETV
attr source  ContentManager_TotalBytesUploaded
attr title  "Total of Bytes Uploaded, vector"
attr unit  B
vector 889  BasicTopology.peer[7].bitTorrentApp.bitTorrentClient.contentManager_26  TotalBytesUploaded:vector  ETV
attr source  ContentManager_TotalBytesUploaded
attr title  "Total of Bytes Uploaded, vector"
attr unit  B
vector 969  BasicTopology.peer[17].bitTorrentApp.bitTorrentClient.contentManager_26  TotalBytesUploaded:vector  ETV
attr source  ContentManager_TotalBytesUploaded
attr title  "Total of Bytes Uploaded, vector"
attr unit  B
3	85	36001	36001
3	46186264	36079.917938737979	36079.917938738
5	86	36001	36001
5	41647235	36072.264098205694	36072.264098206
7	87	36001	36001
7	70341533	36129.554542494243	36129.554542494
9	88	36001	36001
9	72383893	36135.039145416316	36135.039145416
11	89	36001	36001
11	81131078	36307.386895710613	36307.386895711
13	90	36001	36001
13	66736495	36121.59749370648	36121.597493706
15	91	36001	36001
15	74692907	36141.72187861943	36141.721878619
17	92	36001	36001
17	77550052	36153.100647647295	36153.100647647
19	93	36001	36001
19	68398979	36124.955818796748	36124.955818797
21	94	36001	36001
21	37473234	36064.880693515459	36064.880693515
23	95	36001	36001
23	55780727	36098.417916248711	36098.417916249
25	96	36001	36001
25	81679219	36309.830365675598	36309.830365676
27	97	36001	36001
27	74018879	36138.988136039941	36138.98813604
29	98	36001	36001
29	76366838	36147.324800196868	36147.324800197
31	99	36001	36001
31	76994999	36150.351199981644	36150.351199982
33	100	36001	36001
33	81704166	36309.873403242087	36309.873403242
35	101	36001	36001
35	82075169	36312.149038886705	36312.149038887
37	102	36001	36001
37	68602402	36125.334116182728	36125.334116183
39	103	36001	36001
39	74154274	36139.915912071505	36139.915912072
41	104	36001	36001
41	57776999	36102.583267058687	36102.583267059
43	105	36001	36001
43	60441480	36107.689990423102	36107.689990423
45	106	36001	36001
45	69053096	36126.328271403645	36126.328271404
47	107	36001	36001
47	54067353	36095.204612869814	36095.20461287
49	108	36001	36001
49	66759308	36121.63844139649	36121.638441396
833	99084	36001.0674289184	32768
833	100525	36001.068594504927	65536
833	101863	36001.069627111675	98304
833	102523	36001.070058206943	131072
833	125952	36001.091410756582	163840
833	127849	36001.093205550459	196608
833	129747	36001.094950461551	229376
833	129803	36001.095028678078	262144
833	143835	36001.1181423983	294912
833	144186	36001.119171874273	327680
833	284808	36001.574791681322	360448
833	285414	36001.575674800892	393216
833	288002	36001.580678945535	425984
833	290300	36001.583491392841	458752
833	310584	36001.610242898702	491520
833	311317	36001.611937172009	524288
833	311476	36001.612331917817	557056
833	311629	36001.612602901872	589824
833	314899	36001.618375752112	622592
833	320719	36001.640346803628	655360
833	320721	36001.640382855046	688128
833	321373	36001.642303055511	720896
833	330228	36001.656639004253	753664
833	330537	36001.656927869259	786432
833	330894	36001.657243276564	819200
833	332507	36001.65895597432	851968
833	332886	36001.659291580959	884736
833	336073	36001.663018731652	917504
833	336365	36001.663422351404	950272
833	337765	36001.665280175758	983040
833	532135	36002.821496196642	1015808
833	545731	36002.864871500961	1048576
833	565513	36002.931218063926	1081344
833	595437	36003.023734428368	1114112
833	623602	36003.092266960194	1146880
833	639369	36003.138547905758	1179648
833	657519	36003.190384814109	1212416
833	675272	36003.239099583275	1245184
833	698076	36003.53856576823	1277952
833	710456	36003.57944435815	1310720
833	724949	36003.628419963252	1343488
833	959796	36004.103898262458	1376256
833	960391	36004.104691197202	1409024
833	968656	36004.114307525275	1441792
833	969403	36004.115151184827	1474560
833	971481	36004.117737410426	1507328
833	972708	36004.119435359401	1540096
833	974606	36004.12143805424	1572864
833	977610	36004.12585642673	1605632
833	993977	36004.142795839586	1638400
833	994419	36004.143158205137	1671168
833	1142054	36004.489710980913	1703936
833	1142056	36004.491402707151	1736704
833	1146624	36004.500807469352	1769472
833	1165950	36004.516090791488	1802240
833	1255143	36005.030777491353	1835008
833	1255411	36005.039277928951	1867776
833	1255413	36005.041156534893	1900544
833	1255419	36005.062726769123	1933312
833	1255422	36005.06532432621	1966080
833	1255424	36005.066003344068	1998848
833	1257370	36005.095724682071	2031616
833	1270665	36005.140245895816	2064384
833	1620770	36006.14496250765	2097152
833	1651636	36006.23606603016	2129920
833	2066745	36007.280919364478	2162688
833	2168880	36007.546945840315	2195456
833	2216893	36007.656619492392	2228224
833	2243699	36007.730429097028	2260992
833	2470531	36008.577073102544	2293760
833	2571090	36008.859459908535	2326528
833	2625164	36008.952307821849	2359296
833	2894485	36009.448648756521	2392064
833	2975824	36009.56302210145	2424832
833	3041267	36009.647570225465	2457600
833	3082592	36009.717854328929	2490368
833	3137614	36009.814161612157	2523136
833	3162637	36009.974385948385	2555904
833	3426993	36010.40879452168	2588672
833	3445215	36010.436385092401	2621440
833	3450798	36010.445353849802	2654208
833	3683688	36010.902793603805	2686976
833	3769302	36011.024870065005	2719744
833	3844277	36011.131102769436	2752512
833	3907057	36011.2225676604	2785280
833	4174198	36011.657495811286	2818048
833	4230099	36011.757193869922	2850816
833	4284474	36011.836599222766	2883584
833	4428994	36012.120650768247	2916352
833	4491302	36012.204818694815	2949120
833	4609272	36012.36425998211	2981888
833	4700881	36012.495166294555	3014656
833	4750527	36012.565186662641	3047424
833	4772773	36012.597657942144	3080192
833	4816475	36012.665464664843	3112960
833	4838797	36012.698268166704	3145728
833	4891320	36012.790185831609	3178496
833	4922672	36012.833372062821	3211264
833	5258019	36013.385752045882	3244032
833	5871977	36014.525809156547	3276800
833	5978406	36014.711497774487	3309568
833	6641672	36015.793729341209	3342336
833	6684257	36015.851981040676	3375104
833	6721758	36015.899721880643	3407872
833	7184815	36016.822473145858	3440640
833	7254006	36016.921910871805	3473408
833	7296351	36016.984518640654	3506176
833	7384124	36017.100555558397	3538944
833	7449938	36017.190004185493	3571712
833	8088763	36018.249593299111	3604480
833	8130689	36018.314195703653	3637248
833	8173604	36018.407785028691	3670016
833	8185670	36018.44897648326	3702784
833	8202261	36018.503910110641	3735552
833	8216289	36018.549272430356	3768320
833	8843157	36019.606851060312	3801088
833	9071049	36019.959435372319	3833856
833	9199021	36020.124451612084	3866624
833	9586478	36020.661793740375	3899392
833	9591859	36020.670568561387	3932160
833	9594042	36020.673924906827	3964928
833	9596276	36020.677464171856	3997696
833	9840423	36021.163614750806	4030464
833	9972443	36021.349085823435	4063232
833	10810767	36022.497669107104	4096000
833	10900625	36022.628458392118	4128768
833	10949506	36022.695282118431	4161536
833	10998428	36022.762041235182	4194304
833	11028201	36022.803795382258	4227072
833	11065806	36022.855342391751	4259840
833	11111223	36022.918996314523	4292608
833	11187343	36023.016196200414	4325376
833	11665749	36023.924003574396	4358144
833	11717965	36023.993013790034	4390912
833	11818140	36024.144851120777	4423680
833	11865369	36024.216186276215	4456448
833	12565546	36025.393996030312	4489216
833	13375991	36026.633248631157	4521984
833	13385403	36026.652567168933	4554752
833	13386440	36026.654661223093	4587520
833	13399116	36026.685045918165	4620288
833	13406144	36026.695936845283	4653056
833	13406337	36026.696524999277	4685824
833	13410223	36026.70663412064	4718592
833	13415933	36026.717505785198	4751360
833	13415980	36026.717849691478	4784128
833	13416690	36026.719702763778	4816896
833	13632316	36027.1462594592	4849664
833	13891122	36027.557187772337	4882432
833	13965756	36027.665454033773	4915200
833	14024745	36027.754515040111	4947968
833	14052682	36027.792530394284	4980736
833	14738246	36028.89941295651	5013504
833	14831274	36029.032647632357	5046272
833	14852450	36029.092345453855	5079040
833	14868921	36029.119541868774	5111808
833	14933991	36029.21634478799	5144576
833	14988353	36029.308740277852	5177344
833	16104850	36031.085699485304	5210112
833	16105031	36031.085896608396	5242880
833	16117911	36031.106169362262	5275648
833	16132145	36031.129047091238	5308416
833	16132387	36031.129389886798	5341184
833	16133642	36031.131988546963	5373952
833	16149440	36031.162619919774	5406720
833	16149740	36031.16348954348	5439488
833	16150253	36031.164344755854	5472256
833	16150411	36031.164540877871	5505024
833	16755021	36032.219861763844	5537792
833	16782072	36032.286943296564	5570560
833	16845334	36032.377544347473	5603328
833	16911617	36032.468110999632	5636096
833	16978928	36032.571421459575	5668864
833	17005995	36032.611201311769	5701632
833	17708813	36033.667861412678	5734400
833	18849742	36035.436844668815	5767168
833	20114074	36037.58696884786	5799936
833	20168442	36037.665978624394	5832704
833	20216236	36037.734928641239	5865472
833	20262177	36037.799977354254	5898240
833	20966698	36038.894297300556	5931008
833	21484960	36039.64374369471	5963776
833	21514360	36039.678829792829	5996544
833	21516392	36039.681398464957	6029312
833	21530607	36039.69909495111	6062080
833	21531226	36039.699934247342	6094848
833	21542487	36039.716317202417	6127616
833	21544089	36039.718581567774	6160384
833	21546712	36039.722046333573	6193152
833	21551963	36039.729091772628	6225920
833	21554781	36039.733069280174	6258688
833	21715955	36039.957561269309	6291456
833	21785134	36040.046675074697	6324224
833	21839990	36040.116438990741	6356992
833	22283203	36040.809423221678	6389760
833	22954184	36041.989360382698	6422528
833	23118653	36042.223812586943	6455296
833	23784239	36043.172116874796	6488064
833	23823964	36043.224116275609	6520832
833	23885783	36043.294511079244	6553600
833	24555148	36044.337505646212	6586368
833	24620094	36044.420426597072	6619136