version 2
run Test-15-20200526-12:15:30-5295
attr configname Test
attr datetime 20200526-12:15:30
attr experiment "\"Simulation Test\""
attr inifile BasicConfig.ini
attr iterationvars ""
attr iterationvars2 $repetition=15
attr measurement "\"Peers: $peers, Rate: $rate\""
attr network BasicTopology
attr processid 5295
attr repetition 15
attr replication #15
attr resultdir results
attr runnumber 15
attr seedset 15

vector 3  BasicTopology.peer[1].bitTorrentApp.bitTorrentClient  DownloadComplete_Test:vector  ETV
attr source  BitTorrentClient_DownloadComplete_Test
attr title  "Descargas completas (prueba), vector"
vector 5  BasicTopology.peer[2].bitTorrentApp.bitTorrentClient  DownloadComplete_Test:vector  ETV
attr source  BitTorrentClient_DownloadComplete_Test
attr title  "Descargas completas (prueba), vector"
vector 7  BasicTopology.peer[3].bitTorrentApp.bitTorrentClient  DownloadComplete_Test:vector  ETV
attr source  BitTorrentClient_DownloadComplete_Test
attr title  "Descargas completas (prueba), vector"
vector 9  BasicTopology.peer[4].bitTorrentApp.bitTorrentClient  DownloadComplete_Test:vector  ETV
attr source  BitTorrentClient_DownloadComplete_Test
attr title  "Descargas completas (prueba), vector"
vector 11  BasicTopology.peer[5].bitTorrentApp.bitTorrentClient  DownloadComplete_Test:vector  ETV
attr source  BitTorrentClient_DownloadComplete_Test
attr title  "Descargas completas (prueba), vector"
vector 13  BasicTopology.peer[6].bitTorrentApp.bitTorrentClient  DownloadComplete_Test:vector  ETV
attr source  BitTorrentClient_DownloadComplete_Test
attr title  "Descargas completas (prueba), vector"
vector 15  BasicTopology.peer[7].bitTorrentApp.bitTorrentClient  DownloadComplete_Test:vector  ETV
attr source  BitTorrentClient_DownloadComplete_Test
attr title  "Descargas completas (prueba), vector"
vector 17  BasicTopology.peer[8].bitTorrentApp.bitTorrentClient  DownloadComplete_Test:vector  ETV
attr source  BitTorrentClient_DownloadComplete_Test
attr title  "Descargas completas (prueba), vector"
vector 19  BasicTopology.peer[9].bitTorrentApp.bitTorrentClient  DownloadComplete_Test:vector  ETV
attr source  BitTorrentClient_DownloadComplete_Test
attr title  "Descargas completas (prueba), vector"
vector 21  BasicTopology.peer[10].bitTorrentApp.bitTorrentClient  DownloadComplete_Test:vector  ETV
attr source  BitTorrentClient_DownloadComplete_Test
attr title  "Descargas completas (prueba), vector"
vector 23  BasicTopology.peer[11].bitTorrentApp.bitTorrentClient  DownloadComplete_Test:vector  ETV
attr source  BitTorrentClient_DownloadComplete_Test
attr title  "Descargas completas (prueba), vector"
vector 25  BasicTopology.peer[12].bitTorrentApp.bitTorrentClient  DownloadComplete_Test:vector  ETV
attr source  BitTorrentClient_DownloadComplete_Test
attr title  "Descargas completas (prueba), vector"
vector 27  BasicTopology.peer[13].bitTorrentApp.bitTorrentClient  DownloadComplete_Test:vector  ETV
attr source  BitTorrentClient_DownloadComplete_Test
attr title  "Descargas completas (prueba), vector"
vector 29  BasicTopology.peer[14].bitTorrentApp.bitTorrentClient  DownloadComplete_Test:vector  ETV
attr source  BitTorrentClient_DownloadComplete_Test
attr title  "Descargas completas (prueba), vector"
vector 31  BasicTopology.peer[15].bitTorrentApp.bitTorrentClient  DownloadComplete_Test:vector  ETV
attr source  BitTorrentClient_DownloadComplete_Test
attr title  "Descargas completas (prueba), vector"
vector 33  BasicTopology.peer[16].bitTorrentApp.bitTorrentClient  DownloadComplete_Test:vector  ETV
attr source  BitTorrentClient_DownloadComplete_Test
attr title  "Descargas completas (prueba), vector"
vector 35  BasicTopology.peer[17].bitTorrentApp.bitTorrentClient  DownloadComplete_Test:vector  ETV
attr source  BitTorrentClient_DownloadComplete_Test
attr title  "Descargas completas (prueba), vector"
vector 37  BasicTopology.peer[18].bitTorrentApp.bitTorrentClient  DownloadComplete_Test:vector  ETV
attr source  BitTorrentClient_DownloadComplete_Test
attr title  "Descargas completas (prueba), vector"
vector 39  BasicTopology.peer[19].bitTorrentApp.bitTorrentClient  DownloadComplete_Test:vector  ETV
attr source  BitTorrentClient_DownloadComplete_Test
attr title  "Descargas completas (prueba), vector"
vector 41  BasicTopology.peer[20].bitTorrentApp.bitTorrentClient  DownloadComplete_Test:vector  ETV
attr source  BitTorrentClient_DownloadComplete_Test
attr title  "Descargas completas (prueba), vector"
vector 43  BasicTopology.peer[21].bitTorrentApp.bitTorrentClient  DownloadComplete_Test:vector  ETV
attr source  BitTorrentClient_DownloadComplete_Test
attr title  "Descargas completas (prueba), vector"
vector 45  BasicTopology.peer[22].bitTorrentApp.bitTorrentClient  DownloadComplete_Test:vector  ETV
attr source  BitTorrentClient_DownloadComplete_Test
attr title  "Descargas completas (prueba), vector"
vector 47  BasicTopology.peer[23].bitTorrentApp.bitTorrentClient  DownloadComplete_Test:vector  ETV
attr source  BitTorrentClient_DownloadComplete_Test
attr title  "Descargas completas (prueba), vector"
vector 49  BasicTopology.peer[24].bitTorrentApp.bitTorrentClient  DownloadComplete_Test:vector  ETV
attr source  BitTorrentClient_DownloadComplete_Test
attr title  "Descargas completas (prueba), vector"
vector 833  BasicTopology.peer[0].bitTorrentApp.bitTorrentClient.contentManager_26  TotalBytesUploaded:vector  ETV
attr source  ContentManager_TotalBytesUploaded
attr title  "Total of Bytes Uploaded, vector"
attr unit  B
vector 912  BasicTopology.peer[10].bitTorrentApp.bitTorrentClient.contentManager_26  TotalBytesDownloaded:vector  ETV
attr source  ContentManager_TotalBytesDownloaded
attr title  "Total of Bytes Downloaded, vector"
attr unit  B
vector 920  BasicTopology.peer[11].bitTorrentApp.bitTorrentClient.contentManager_26  TotalBytesDownloaded:vector  ETV
attr source  ContentManager_TotalBytesDownloaded
attr title  "Total of Bytes Downloaded, vector"
attr unit  B
vector 911  BasicTopology.peer[10].bitTorrentApp.bitTorrentClient.contentManager_26  PiecesDownloaded:vector  ETV
attr source  ContentManager_PieceDownloaded
attr title  "Pieces Downloaded, vector"
vector 913  BasicTopology.peer[10].bitTorrentApp.bitTorrentClient.contentManager_26  TotalBytesUploaded:vector  ETV
attr source  ContentManager_TotalBytesUploaded
attr title  "Total of Bytes Uploaded, vector"
attr unit  B
vector 1008  BasicTopology.peer[22].bitTorrentApp.bitTorrentClient.contentManager_26  TotalBytesDownloaded:vector  ETV
attr source  ContentManager_TotalBytesDownloaded
attr title  "Total of Bytes Downloaded, vector"
attr unit  B
vector 984  BasicTopology.peer[19].bitTorrentApp.bitTorrentClient.contentManager_26  TotalBytesDownloaded:vector  ETV
attr source  ContentManager_TotalBytesDownloaded
attr title  "Total of Bytes Downloaded, vector"
attr unit  B
vector 848  BasicTopology.peer[2].bitTorrentApp.bitTorrentClient.contentManager_26  TotalBytesDownloaded:vector  ETV
attr source  ContentManager_TotalBytesDownloaded
attr title  "Total of Bytes Downloaded, vector"
attr unit  B
vector 919  BasicTopology.peer[11].bitTorrentApp.bitTorrentClient.contentManager_26  PiecesDownloaded:vector  ETV
attr source  ContentManager_PieceDownloaded
attr title  "Pieces Downloaded, vector"
vector 921  BasicTopology.peer[11].bitTorrentApp.bitTorrentClient.contentManager_26  TotalBytesUploaded:vector  ETV
attr source  ContentManager_TotalBytesUploaded
attr title  "Total of Bytes Uploaded, vector"
attr unit  B
vector 840  BasicTopology.peer[1].bitTorrentApp.bitTorrentClient.contentManager_26  TotalBytesDownloaded:vector  ETV
attr source  ContentManager_TotalBytesDownloaded
attr title  "Total of Bytes Downloaded, vector"
attr unit  B
vector 856  BasicTopology.peer[3].bitTorrentApp.bitTorrentClient.contentManager_26  TotalBytesDownloaded:vector  ETV
attr source  ContentManager_TotalBytesDownloaded
attr title  "Total of Bytes Downloaded, vector"
attr unit  B
vector 1007  BasicTopology.peer[22].bitTorrentApp.bitTorrentClient.contentManager_26  PiecesDownloaded:vector  ETV
attr source  ContentManager_PieceDownloaded
attr title  "Pieces Downloaded, vector"
vector 1009  BasicTopology.peer[22].bitTorrentApp.bitTorrentClient.contentManager_26  TotalBytesUploaded:vector  ETV
attr source  ContentManager_TotalBytesUploaded
attr title  "Total of Bytes Uploaded, vector"
attr unit  B
vector 847  BasicTopology.peer[2].bitTorrentApp.bitTorrentClient.contentManager_26  PiecesDownloaded:vector  ETV
attr source  ContentManager_PieceDownloaded
attr title  "Pieces Downloaded, vector"
vector 849  BasicTopology.peer[2].bitTorrentApp.bitTorrentClient.contentManager_26  TotalBytesUploaded:vector  ETV
attr source  ContentManager_TotalBytesUploaded
attr title  "Total of Bytes Uploaded, vector"
attr unit  B
vector 888  BasicTopology.peer[7].bitTorrentApp.bitTorrentClient.contentManager_26  TotalBytesDownloaded:vector  ETV
attr source  ContentManager_TotalBytesDownloaded
attr title  "Total of Bytes Downloaded, vector"
attr unit  B
vector 872  BasicTopology.peer[5].bitTorrentApp.bitTorrentClient.contentManager_26  TotalBytesDownloaded:vector  ETV
attr source  ContentManager_TotalBytesDownloaded
attr title  "Total of Bytes Downloaded, vector"
attr unit  B
vector 896  BasicTopology.peer[8].bitTorrentApp.bitTorrentClient.contentManager_26  TotalBytesDownloaded:vector  ETV
attr source  ContentManager_TotalBytesDownloaded
attr title  "Total of Bytes Downloaded, vector"
attr unit  B
vector 944  BasicTopology.peer[14].bitTorrentApp.bitTorrentClient.contentManager_26  TotalBytesDownloaded:vector  ETV
attr source  ContentManager_TotalBytesDownloaded
attr title  "Total of Bytes Downloaded, vector"
attr unit  B
vector 943  BasicTopology.peer[14].bitTorrentApp.bitTorrentClient.contentManager_26  PiecesDownloaded:vector  ETV
attr source  ContentManager_PieceDownloaded
attr title  "Pieces Downloaded, vector"
vector 945  BasicTopology.peer[14].bitTorrentApp.bitTorrentClient.contentManager_26  TotalBytesUploaded:vector  ETV
attr source  ContentManager_TotalBytesUploaded
attr title  "Total of Bytes Uploaded, vector"
attr unit  B
vector 1016  BasicTopology.peer[23].bitTorrentApp.bitTorrentClient.contentManager_26  TotalBytesDownloaded:vector  ETV
attr source  ContentManager_TotalBytesDownloaded
attr title  "Total of Bytes Downloaded, vector"
attr unit  B
vector 855  BasicTopology.peer[3].bitTorrentApp.bitTorrentClient.contentManager_26  PiecesDownloaded:vector  ETV
attr source  ContentManager_PieceDownloaded
attr title  "Pieces Downloaded, vector"
vector 904  BasicTopology.peer[9].bitTorrentApp.bitTorrentClient.contentManager_26  TotalBytesDownloaded:vector  ETV
attr source  ContentManager_TotalBytesDownloaded
attr title  "Total of Bytes Downloaded, vector"
attr unit  B
vector 880  BasicTopology.peer[6].bitTorrentApp.bitTorrentClient.contentManager_26  TotalBytesDownloaded:vector  ETV
attr source  ContentManager_TotalBytesDownloaded
attr title  "Total of Bytes Downloaded, vector"
attr unit  B
vector 1024  BasicTopology.peer[24].bitTorrentApp.bitTorrentClient.contentManager_26  TotalBytesDownloaded:vector  ETV
attr source  ContentManager_TotalBytesDownloaded
attr title  "Total of Bytes Downloaded, vector"
attr unit  B
vector 992  BasicTopology.peer[20].bitTorrentApp.bitTorrentClient.contentManager_26  TotalBytesDownloaded:vector  ETV
attr source  ContentManager_TotalBytesDownloaded
attr title  "Total of Bytes Downloaded, vector"
attr unit  B
vector 895  BasicTopology.peer[8].bitTorrentApp.bitTorrentClient.contentManager_26  PiecesDownloaded:vector  ETV
attr source  ContentManager_PieceDownloaded
attr title  "Pieces Downloaded, vector"
vector 897  BasicTopology.peer[8].bitTorrentApp.bitTorrentClient.contentManager_26  TotalBytesUploaded:vector  ETV
attr source  ContentManager_TotalBytesUploaded
attr title  "Total of Bytes Uploaded, vector"
attr unit  B
vector 1015  BasicTopology.peer[23].bitTorrentApp.bitTorrentClient.contentManager_26  PiecesDownloaded:vector  ETV
attr source  ContentManager_PieceDownloaded
attr title  "Pieces Downloaded, vector"
vector 857  BasicTopology.peer[3].bitTorrentApp.bitTorrentClient.contentManager_26  TotalBytesUploaded:vector  ETV
attr source  ContentManager_TotalBytesUploaded
attr title  "Total of Bytes Uploaded, vector"
attr unit  B
vector 936  BasicTopology.peer[13].bitTorrentApp.bitTorrentClient.contentManager_26  TotalBytesDownloaded:vector  ETV
attr source  ContentManager_TotalBytesDownloaded
attr title  "Total of Bytes Downloaded, vector"
attr unit  B
vector 839  BasicTopology.peer[1].bitTorrentApp.bitTorrentClient.contentManager_26  PiecesDownloaded:vector  ETV
attr source  ContentManager_PieceDownloaded
attr title  "Pieces Downloaded, vector"
vector 841  BasicTopology.peer[1].bitTorrentApp.bitTorrentClient.contentManager_26  TotalBytesUploaded:vector  ETV
attr source  ContentManager_TotalBytesUploaded
attr title  "Total of Bytes Uploaded, vector"
attr unit  B
vector 864  BasicTopology.peer[4].bitTorrentApp.bitTorrentClient.contentManager_26  TotalBytesDownloaded:vector  ETV
attr source  ContentManager_TotalBytesDownloaded
attr title  "Total of Bytes Downloaded, vector"
attr unit  B
vector 1023  BasicTopology.peer[24].bitTorrentApp.bitTorrentClient.contentManager_26  PiecesDownloaded:vector  ETV
attr source  ContentManager_PieceDownloaded
attr title  "Pieces Downloaded, vector"
vector 960  BasicTopology.peer[16].bitTorrentApp.bitTorrentClient.contentManager_26  TotalBytesDownloaded:vector  ETV
attr source  ContentManager_TotalBytesDownloaded
attr title  "Total of Bytes Downloaded, vector"
attr unit  B
vector 871  BasicTopology.peer[5].bitTorrentApp.bitTorrentClient.contentManager_26  PiecesDownloaded:vector  ETV
attr source  ContentManager_PieceDownloaded
attr title  "Pieces Downloaded, vector"
vector 991  BasicTopology.peer[20].bitTorrentApp.bitTorrentClient.contentManager_26  PiecesDownloaded:vector  ETV
attr source  ContentManager_PieceDownloaded
attr title  "Pieces Downloaded, vector"
vector 968  BasicTopology.peer[17].bitTorrentApp.bitTorrentClient.contentManager_26  TotalBytesDownloaded:vector  ETV
attr source  ContentManager_TotalBytesDownloaded
attr title  "Total of Bytes Downloaded, vector"
attr unit  B
vector 959  BasicTopology.peer[16].bitTorrentApp.bitTorrentClient.contentManager_26  PiecesDownloaded:vector  ETV
attr source  ContentManager_PieceDownloaded
attr title  "Pieces Downloaded, vector"
vector 1000  BasicTopology.peer[21].bitTorrentApp.bitTorrentClient.contentManager_26  TotalBytesDownloaded:vector  ETV
attr source  ContentManager_TotalBytesDownloaded
attr title  "Total of Bytes Downloaded, vector"
attr unit  B
vector 993  BasicTopology.peer[20].bitTorrentApp.bitTorrentClient.contentManager_26  TotalBytesUploaded:vector  ETV
attr source  ContentManager_TotalBytesUploaded
attr title  "Total of Bytes Uploaded, vector"
attr unit  B
vector 873  BasicTopology.peer[5].bitTorrentApp.bitTorrentClient.contentManager_26  TotalBytesUploaded:vector  ETV
attr source  ContentManager_TotalBytesUploaded
attr title  "Total of Bytes Uploaded, vector"
attr unit  B
vector 983  BasicTopology.peer[19].bitTorrentApp.bitTorrentClient.contentManager_26  PiecesDownloaded:vector  ETV
attr source  ContentManager_PieceDownloaded
attr title  "Pieces Downloaded, vector"
vector 928  BasicTopology.peer[12].bitTorrentApp.bitTorrentClient.contentManager_26  TotalBytesDownloaded:vector  ETV
attr source  ContentManager_TotalBytesDownloaded
attr title  "Total of Bytes Downloaded, vector"
attr unit  B
vector 887  BasicTopology.peer[7].bitTorrentApp.bitTorrentClient.contentManager_26  PiecesDownloaded:vector  ETV
attr source  ContentManager_PieceDownloaded
attr title  "Pieces Downloaded, vector"
vector 879  BasicTopology.peer[6].bitTorrentApp.bitTorrentClient.contentManager_26  PiecesDownloaded:vector  ETV
attr source  ContentManager_PieceDownloaded
attr title  "Pieces Downloaded, vector"
vector 952  BasicTopology.peer[15].bitTorrentApp.bitTorrentClient.contentManager_26  TotalBytesDownloaded:vector  ETV
attr source  ContentManager_TotalBytesDownloaded
attr title  "Total of Bytes Downloaded, vector"
attr unit  B
vector 999  BasicTopology.peer[21].bitTorrentApp.bitTorrentClient.contentManager_26  PiecesDownloaded:vector  ETV
attr source  ContentManager_PieceDownloaded
attr title  "Pieces Downloaded, vector"
vector 1001  BasicTopology.peer[21].bitTorrentApp.bitTorrentClient.contentManager_26  TotalBytesUploaded:vector  ETV
attr source  ContentManager_TotalBytesUploaded
attr title  "Total of Bytes Uploaded, vector"
attr unit  B
vector 889  BasicTopology.peer[7].bitTorrentApp.bitTorrentClient.contentManager_26  TotalBytesUploaded:vector  ETV
attr source  ContentManager_TotalBytesUploaded
attr title  "Total of Bytes Uploaded, vector"
attr unit  B
vector 951  BasicTopology.peer[15].bitTorrentApp.bitTorrentClient.contentManager_26  PiecesDownloaded:vector  ETV
attr source  ContentManager_PieceDownloaded
attr title  "Pieces Downloaded, vector"
vector 903  BasicTopology.peer[9].bitTorrentApp.bitTorrentClient.contentManager_26  PiecesDownloaded:vector  ETV
attr source  ContentManager_PieceDownloaded
attr title  "Pieces Downloaded, vector"
vector 935  BasicTopology.peer[13].bitTorrentApp.bitTorrentClient.contentManager_26  PiecesDownloaded:vector  ETV
attr source  ContentManager_PieceDownloaded
attr title  "Pieces Downloaded, vector"
vector 976  BasicTopology.peer[18].bitTorrentApp.bitTorrentClient.contentManager_26  TotalBytesDownloaded:vector  ETV
attr source  ContentManager_TotalBytesDownloaded
attr title  "Total of Bytes Downloaded, vector"
attr unit  B
vector 967  BasicTopology.peer[17].bitTorrentApp.bitTorrentClient.contentManager_26  PiecesDownloaded:vector  ETV
attr source  ContentManager_PieceDownloaded
attr title  "Pieces Downloaded, vector"
vector 975  BasicTopology.peer[18].bitTorrentApp.bitTorrentClient.contentManager_26  PiecesDownloaded:vector  ETV
attr source  ContentManager_PieceDownloaded
attr title  "Pieces Downloaded, vector"
vector 863  BasicTopology.peer[4].bitTorrentApp.bitTorrentClient.contentManager_26  PiecesDownloaded:vector  ETV
attr source  ContentManager_PieceDownloaded
attr title  "Pieces Downloaded, vector"
vector 937  BasicTopology.peer[13].bitTorrentApp.bitTorrentClient.contentManager_26  TotalBytesUploaded:vector  ETV
attr source  ContentManager_TotalBytesUploaded
attr title  "Total of Bytes Uploaded, vector"
attr unit  B
vector 1017  BasicTopology.peer[23].bitTorrentApp.bitTorrentClient.contentManager_26  TotalBytesUploaded:vector  ETV
attr source  ContentManager_TotalBytesUploaded
attr title  "Total of Bytes Uploaded, vector"
attr unit  B
vector 927  BasicTopology.peer[12].bitTorrentApp.bitTorrentClient.contentManager_26  PiecesDownloaded:vector  ETV
attr source  ContentManager_PieceDownloaded
attr title  "Pieces Downloaded, vector"
vector 985  BasicTopology.peer[19].bitTorrentApp.bitTorrentClient.contentManager_26  TotalBytesUploaded:vector  ETV
attr source  ContentManager_TotalBytesUploaded
attr title  "Total of Bytes Uploaded, vector"
attr unit  B
vector 865  BasicTopology.peer[4].bitTorrentApp.bitTorrentClient.contentManager_26  TotalBytesUploaded:vector  ETV
attr source  ContentManager_TotalBytesUploaded
attr title  "Total of Bytes Uploaded, vector"
attr unit  B
vector 1025  BasicTopology.peer[24].bitTorrentApp.bitTorrentClient.contentManager_26  TotalBytesUploaded:vector  ETV
attr source  ContentManager_TotalBytesUploaded
attr title  "Total of Bytes Uploaded, vector"
attr unit  B
vector 881  BasicTopology.peer[6].bitTorrentApp.bitTorrentClient.contentManager_26  TotalBytesUploaded:vector  ETV
attr source  ContentManager_TotalBytesUploaded
attr title  "Total of Bytes Uploaded, vector"
attr unit  B
vector 929  BasicTopology.peer[12].bitTorrentApp.bitTorrentClient.contentManager_26  TotalBytesUploaded:vector  ETV
attr source  ContentManager_TotalBytesUploaded
attr title  "Total of Bytes Uploaded, vector"
attr unit  B
vector 953  BasicTopology.peer[15].bitTorrentApp.bitTorrentClient.contentManager_26  TotalBytesUploaded:vector  ETV
attr source  ContentManager_TotalBytesUploaded
attr title  "Total of Bytes Uploaded, vector"
attr unit  B
vector 905  BasicTopology.peer[9].bitTorrentApp.bitTorrentClient.contentManager_26  TotalBytesUploaded:vector  ETV
attr source  ContentManager_TotalBytesUploaded
attr title  "Total of Bytes Uploaded, vector"
attr unit  B
vector 977  BasicTopology.peer[18].bitTorrentApp.bitTorrentClient.contentManager_26  TotalBytesUploaded:vector  ETV
attr source  ContentManager_TotalBytesUploaded
attr title  "Total of Bytes Uploaded, vector"
attr unit  B
3	85	36001	36001
3	65771908	36125.083631982423	36125.083631982
5	86	36001	36001
5	57316618	36106.411535016352	36106.411535016
7	87	36001	36001
7	64257821	36121.453661000338	36121.453661
9	88	36001	36001
9	62733102	36117.980939542723	36117.980939543
11	89	36001	36001
11	79668803	36155.165919038619	36155.165919039
13	90	36001	36001
13	68688033	36131.436876766394	36131.436876766
15	91	36001	36001
15	80235153	36157.105002913024	36157.105002913
17	92	36001	36001
17	86832548	36176.67517208604	36176.675172086
19	93	36001	36001
19	78124000	36151.917335757244	36151.917335757
21	94	36001	36001
21	72049777	36138.751177285373	36138.751177285
23	95	36001	36001
23	20091799	36039.615041776343	36039.615041776
25	96	36001	36001
25	62288502	36116.886915546203	36116.886915546
27	97	36001	36001
27	72895667	36141.012089695257	36141.012089695
29	98	36001	36001
29	77621684	36150.549883882222	36150.549883882
31	99	36001	36001
31	77663749	36150.655435012923	36150.655435013
33	100	36001	36001
33	71352305	36137.103932598359	36137.103932598
35	101	36001	36001
35	84961485	36167.712441371316	36167.712441371
37	102	36001	36001
37	84030592	36165.516352476346	36165.516352476
39	103	36001	36001
39	80711682	36158.079239009093	36158.079239009
41	104	36001	36001
41	39489662	36072.492247767958	36072.492247768
43	105	36001	36001
43	78875581	36153.55373882875	36153.553738829
45	106	36001	36001
45	72984041	36141.169986618118	36141.169986618
47	107	36001	36001
47	60031010	36112.006553314873	36112.006553315
49	108	36001	36001
49	56243050	36104.532711209332	36104.532711209
833	396112	36002.053452022101	32768
833	396364	36002.054108337761	65536
833	396691	36002.055457913087	98304
833	400443	36002.067670384435	131072
833	408829	36002.093314629633	163840
833	409394	36002.095011831847	196608
833	410062	36002.116326687881	229376
833	412850	36002.133455639884	262144
833	412982	36002.133701336174	294912
833	421759	36002.150974739802	327680
833	422869	36002.157368984968	360448
833	422871	36002.157504650611	393216
833	423148	36002.175221138963	425984
833	423150	36002.175438653152	458752
833	423152	36002.175655084273	491520
833	423272	36002.178647094701	524288
833	423274	36002.178943384064	557056
833	423376	36002.196726137328	589824
833	423378	36002.198186251963	622592
833	423419	36002.201616573625	655360
833	510686	36002.57779193334	688128
833	511940	36002.579193059492	720896
833	523763	36002.593410041659	753664
833	532189	36002.60457087565	786432
833	532736	36002.605148498902	819200
833	534021	36002.606884068056	851968
833	540220	36002.619838414445	884736
833	540222	36002.6200428321	917504
833	540224	36002.620847084721	950272
833	540376	36002.659586911689	983040
833	557622	36002.719488135093	1015808
833	565771	36002.73385171352	1048576
833	565843	36002.734005008792	1081344
833	567993	36002.738389613498	1114112
833	568191	36002.738724858085	1146880
833	574306	36002.748495362749	1179648
833	584048	36002.764044866098	1212416
833	584294	36002.764427413449	1245184
833	588581	36002.770011278447	1277952
833	589011	36002.770564418983	1310720
833	685279	36003.098722596066	1343488
833	691403	36003.119183968798	1376256
833	703832	36003.161201069257	1409024
833	714370	36003.19682582291	1441792
833	715341	36003.19998667742	1474560
833	720654	36003.218527909474	1507328
833	729760	36003.487324626577	1540096
833	742489	36003.526254265726	1572864
833	953091	36004.263878498085	1605632
833	1159282	36005.076629951741	1638400
833	1185609	36005.150584365912	1671168
833	1207246	36005.206248458884	1703936
833	1228280	36005.275828825607	1736704
833	1231051	36005.284601555875	1769472
833	1231418	36005.285315682142	1802240
833	1231532	36005.285930104461	1835008
833	1248935	36005.337021181397	1867776
833	1283784	36005.403670054435	1900544
833	1298364	36005.434328646814	1933312
833	1315762	36005.46837470006	1966080
833	1360084	36005.567903751704	1998848
833	1395873	36005.638020786559	2031616
833	1408298	36005.675570250733	2064384
833	1432886	36005.753429972943	2097152
833	1455470	36005.819697373807	2129920
833	1514901	36005.93266030792	2162688
833	1579074	36006.081819094061	2195456
833	1714729	36006.438264770368	2228224
833	1735591	36006.506949635261	2260992
833	1799613	36006.635431961396	2293760
833	2082434	36007.265696571587	2326528
833	2156085	36007.420041050232	2359296
833	2268464	36007.680450687545	2392064
833	2339567	36007.798414391986	2424832
833	2670767	36008.512864667076	2457600
833	2684191	36008.535572125994	2490368
833	2717157	36008.588454877331	2523136
833	2731219	36008.609206984624	2555904
833	2887654	36008.946247019281	2588672
833	2957484	36009.077649720893	2621440
833	3197618	36009.617222920637	2654208
833	3208037	36009.652329210045	2686976
833	3213256	36009.670357548758	2719744
833	3222483	36009.695565492272	2752512
833	3474727	36010.171965465343	2785280
833	3582604	36010.352756936587	2818048
833	3763882	36010.727394220678	2850816
833	3772176	36010.741487682788	2883584
833	4074892	36011.562239702087	2916352
833	4179331	36011.767551081352	2949120
833	4199148	36011.793710350252	2981888
833	4210839	36011.813203295958	3014656
833	4220376	36011.840621515706	3047424
833	4233002	36011.883341840675	3080192
833	4233650	36011.885731831867	3112960
833	4240860	36011.909520491521	3145728
833	4392171	36012.509201591792	3178496
833	4486637	36012.685286196592	3211264
833	4624898	36012.939265997832	3244032
833	4662543	36012.988975155707	3276800
833	4666550	36012.99502442078	3309568
833	4676725	36013.010767141189	3342336
833	4714033	36013.050048292778	3375104
833	4738882	36013.078201303509	3407872
833	4760127	36013.107029963046	3440640
833	4771938	36013.132152894274	3473408
833	5123724	36014.180519693919	3506176
833	5138961	36014.200728076592	3538944
833	5558030	36014.894195417693	3571712
833	5792715	36015.220287576001	3604480
833	5800234	36015.236064662042	3637248
833	5814511	36015.274207967293	3670016
833	5817883	36015.283626163572	3702784
833	5844158	36015.624713508177	3735552
833	5856784	36015.662935041302	3768320
833	5880676	36015.706204069641	3801088
833	6271234	36016.310328137616	3833856
833	6301051	36016.348622225298	3866624
833	6310133	36016.359208873143	3899392
833	6586028	36016.790061505261	3932160
833	6622978	36016.867703649023	3964928
833	6737215	36017.112567216592	3997696
833	6902705	36017.38992569189	4030464
833	6915535	36017.412849859943	4063232
833	6931720	36017.440014576672	4096000
833	7471391	36018.472948191727	4128768
833	7943786	36019.499553731412	4161536
833	7957073	36019.529755828101	4194304
833	7975473	36019.554472824993	4227072
833	7990989	36019.578496242969	4259840
833	8024347	36019.618205360991	4292608
833	8033617	36019.627945341078	4325376
833	8047500	36019.650818303934	4358144
833	8066740	36019.6803158759	4390912
833	8083062	36019.703600909723	4423680
833	8107346	36019.740427621468	4456448
833	8249083	36019.935746102082	4489216
833	8292934	36019.991557996628	4521984
833	8320029	36020.029161343854	4554752
833	8476078	36020.347640625395	4587520
833	8691752	36020.75948756805	4620288
833	8718267	36020.801593140237	4653056
833	8899213	36021.128441100319	4685824
833	8972772	36021.267156371033	4718592
833	9004082	36021.323480978982	4751360
833	9113904	36021.522842846535	4784128
833	9113925	36021.522878760521	4816896
833	9202516	36021.662859654272	4849664
833	9302031	36021.828919846636	4882432
833	9345790	36021.887939578257	4915200
833	9662035	36022.388871049945	4947968
833	9725880	36022.481249827045	4980736
833	9954837	36022.936917557043	5013504
833	9971748	36022.965048942882	5046272
833	10001689	36023.009885106485	5079040
833	10272590	36023.530513013178	5111808
833	10307689	36023.579788631302	5144576
833	10330938	36023.617035430549	5177344
833	10374705	36023.698763510036	5210112
833	10410290	36023.784859615467	5242880
833	10461216	36023.86841634273	5275648
833	10512273	36023.93684550881	5308416
833	10601546	36024.054064819358	5341184
833	10615366	36024.071680973821	5373952
833	11105374	36024.857384208835	5406720
833	11188286	36024.997284231919	5439488
833	11773858	36025.909675593814	5472256
833	11823445	36025.989225844631	5505024
833	11851281	36026.025511723002	5537792
833	11857283	36026.036078093555	5570560
833	11857982	36026.037164874396	5603328
833	11864604	36026.045664876848	5636096
833	11885056	36026.072065492794	5668864
833	11907780	36026.102705152512	5701632
833	11913754	36026.111025129516	5734400
833	11939419	36026.14599153998	5767168
833	11939816	36026.146512539788	5799936
833	11952609	36026.162791323317	5832704
833	11957523	36026.168800910164	5865472
833	12775268	36027.400055838615	5898240
833	13537342	36028.692265539432	5931008
833	13545779	36028.70568163764	5963776
833	13548469	36028.710771215038	5996544
833	13549410	36028.712609489012	6029312
833	13549575	36028.712932384212	6062080
833	13553726	36028.720005795177	6094848
833	13586907	36028.759339281386	6127616
833	13595645	36028.770477210496	6160384
833	13605984	36028.784196468177	6193152
833	13622567	36028.804816653816	6225920
833	14193086	36029.7879369992	6258688
833	14569894	36030.300637689064	6291456
833	14657676	36030.428591141878	6324224
833	14751176	36030.564909537682	6356992
833	14778143	36030.602405839395	6389760
833	14812601	36030.652007421518	6422528
833	14849814	36030.703212257805	6455296
833	15426519	36031.535708185373	6488064
833	15511341	36031.717657246109	6520832
833	15543711	36031.807838891202	6553600
833	16118148	36032.833927678143	6586368
833	16196909	36032.974854502008	6619136