version 2
run Test-4-20200526-12:14:09-5181
attr configname Test
attr datetime 20200526-12:14:09
attr experiment "\"Simulation Test\""
attr inifile BasicConfig.ini
attr iterationvars ""
attr iterationvars2 $repetition=4
attr measurement "\"Peers: $peers, Rate: $rate\""
attr network BasicTopology
attr processid 5181
attr repetition 4
attr replication #4
attr resultdir results
attr runnumber 4
attr seedset 4

vector 3  BasicTopology.peer[1].bitTorrentApp.bitTorrentClient  DownloadComplete_Test:vector  ETV
attr source  BitTorrentClient_DownloadComplete_Test
attr title  "Descargas completas (prueba), vector"
vector 5  BasicTopology.peer[2].bitTorrentApp.bitTorrentClient  DownloadComplete_Test:vector  ETV
attr source  BitTorrentClient_DownloadComplete_Test
attr title  "Descargas completas (prueba), vector"
vector 7  BasicTopology.peer[3].bitTorrentApp.bitTorrentClient  DownloadComplete_Test:vector  ETV
attr source  BitTorrentClient_DownloadComplete_Test
attr title  "Descargas completas (prueba), vector"
vector 9  BasicTopology.peer[4].bitTorrentApp.bitTorrentClient  DownloadComplete_Test:vector  ETV
attr source  BitTorrentClient_DownloadComplete_Test
attr title  "Descargas completas (prueba), vector"
vector 11  BasicTopology.peer[5].bitTorrentApp.bitTorrentClient  DownloadComplete_Test:vector  ETV
attr source  BitTorrentClient_DownloadComplete_Test
attr title  "Descargas completas (prueba), vector"
vector 13  BasicTopology.peer[6].bitTorrentApp.bitTorrentClient  DownloadComplete_Test:vector  ETV
attr source  BitTorrentClient_DownloadComplete_Test
attr title  "Descargas completas (prueba), vector"
vector 15  BasicTopology.peer[7].bitTorrentApp.bitTorrentClient  DownloadComplete_Test:vector  ETV
attr source  BitTorrentClient_DownloadComplete_Test
attr title  "Descargas completas (prueba), vector"
vector 17  BasicTopology.peer[8].bitTorrentApp.bitTorrentClient  DownloadComplete_Test:vector  ETV
attr source  BitTorrentClient_DownloadComplete_Test
attr title  "Descargas completas (prueba), vector"
vector 19  BasicTopology.peer[9].bitTorrentApp.bitTorrentClient  DownloadComplete_Test:vector  ETV
attr source  BitTorrentClient_DownloadComplete_Test
attr title  "Descargas completas (prueba), vector"
vector 21  BasicTopology.peer[10].bitTorrentApp.bitTorrentClient  DownloadComplete_Test:vector  ETV
attr source  BitTorrentClient_DownloadComplete_Test
attr title  "Descargas completas (prueba), vector"
vector 23  BasicTopology.peer[11].bitTorrentApp.bitTorrentClient  DownloadComplete_Test:vector  ETV
attr source  BitTorrentClient_DownloadComplete_Test
attr title  "Descargas completas (prueba), vector"
vector 25  BasicTopology.peer[12].bitTorrentApp.bitTorrentClient  DownloadComplete_Test:vector  ETV
attr source  BitTorrentClient_DownloadComplete_Test
attr title  "Descargas completas (prueba), vector"
vector 27  BasicTopology.peer[13].bitTorrentApp.bitTorrentClient  DownloadComplete_Test:vector  ETV
attr source  BitTorrentClient_DownloadComplete_Test
attr title  "Descargas completas (prueba), vector"
vector 29  BasicTopology.peer[14].bitTorrentApp.bitTorrentClient  DownloadComplete_Test:vector  ETV
attr source  BitTorrentClient_DownloadComplete_Test
attr title  "Descargas completas (prueba), vector"
vector 31  BasicTopology.peer[15].bitTorrentApp.bitTorrentClient  DownloadComplete_Test:vector  ETV
attr source  BitTorrentClient_DownloadComplete_Test
attr title  "Descargas completas (prueba), vector"
vector 33  BasicTopology.peer[16].bitTorrentApp.bitTorrentClient  DownloadComplete_Test:vector  ETV
attr source  BitTorrentClient_DownloadComplete_Test
attr title  "Descargas completas (prueba), vector"
vector 35  BasicTopology.peer[17].bitTorrentApp.bitTorrentClient  DownloadComplete_Test:vector  ETV
attr source  BitTorrentClient_DownloadComplete_Test
attr title  "Descargas completas (prueba), vector"
vector 37  BasicTopology.peer[18].bitTorrentApp.bitTorrentClient  DownloadComplete_Test:vector  ETV
attr source  BitTorrentClient_DownloadComplete_Test
attr title  "Descargas completas (prueba), vector"
vector 39  BasicTopology.peer[19].bitTorrentApp.bitTorrentClient  DownloadComplete_Test:vector  ETV
attr source  BitTorrentClient_DownloadComplete_Test
attr title  "Descargas completas (prueba), vector"
vector 41  BasicTopology.peer[20].bitTorrentApp.bitTorrentClient  DownloadComplete_Test:vector  ETV
attr source  BitTorrentClient_DownloadComplete_Test
attr title  "Descargas completas (prueba), vector"
vector 43  BasicTopology.peer[21].bitTorrentApp.bitTorrentClient  DownloadComplete_Test:vector  ETV
attr source  BitTorrentClient_DownloadComplete_Test
attr title  "Descargas completas (prueba), vector"
vector 45  BasicTopology.peer[22].bitTorrentApp.bitTorrentClient  DownloadComplete_Test:vector  ETV
attr source  BitTorrentClient_DownloadComplete_Test
attr title  "Descargas completas (prueba), vector"
vector 47  BasicTopology.peer[23].bitTorrentApp.bitTorrentClient  DownloadComplete_Test:vector  ETV
attr source  BitTorrentClient_DownloadComplete_Test
attr title  "Descargas completas (prueba), vector"
vector 49  BasicTopology.peer[24].bitTorrentApp.bitTorrentClient  DownloadComplete_Test:vector  ETV
attr source  BitTorrentClient_DownloadComplete_Test
attr title  "Descargas completas (prueba), vector"
vector 833  BasicTopology.peer[0].bitTorrentApp.bitTorrentClient.contentManager_26  TotalBytesUploaded:vector  ETV
attr source  ContentManager_TotalBytesUploaded
attr title  "Total of Bytes Uploaded, vector"
attr unit  B
vector 840  BasicTopology.peer[1].bitTorrentApp.bitTorrentClient.contentManager_26  TotalBytesDownloaded:vector  ETV
attr source  ContentManager_TotalBytesDownloaded
attr title  "Total of Bytes Downloaded, vector"
attr unit  B
vector 1008  BasicTopology.peer[22].bitTorrentApp.bitTorrentClient.contentManager_26  TotalBytesDownloaded:vector  ETV
attr source  ContentManager_TotalBytesDownloaded
attr title  "Total of Bytes Downloaded, vector"
attr unit  B
vector 864  BasicTopology.peer[4].bitTorrentApp.bitTorrentClient.contentManager_26  TotalBytesDownloaded:vector  ETV
attr source  ContentManager_TotalBytesDownloaded
attr title  "Total of Bytes Downloaded, vector"
attr unit  B
vector 839  BasicTopology.peer[1].bitTorrentApp.bitTorrentClient.contentManager_26  PiecesDownloaded:vector  ETV
attr source  ContentManager_PieceDownloaded
attr title  "Pieces Downloaded, vector"
vector 841  BasicTopology.peer[1].bitTorrentApp.bitTorrentClient.contentManager_26  TotalBytesUploaded:vector  ETV
attr source  ContentManager_TotalBytesUploaded
attr title  "Total of Bytes Uploaded, vector"
attr unit  B
vector 992  BasicTopology.peer[20].bitTorrentApp.bitTorrentClient.contentManager_26  TotalBytesDownloaded:vector  ETV
attr source  ContentManager_TotalBytesDownloaded
attr title  "Total of Bytes Downloaded, vector"
attr unit  B
vector 1016  BasicTopology.peer[23].bitTorrentApp.bitTorrentClient.contentManager_26  TotalBytesDownloaded:vector  ETV
attr source  ContentManager_TotalBytesDownloaded
attr title  "Total of Bytes Downloaded, vector"
attr unit  B
vector 936  BasicTopology.peer[13].bitTorrentApp.bitTorrentClient.contentManager_26  TotalBytesDownloaded:vector  ETV
attr source  ContentManager_TotalBytesDownloaded
attr title  "Total of Bytes Downloaded, vector"
attr unit  B
vector 991  BasicTopology.peer[20].bitTorrentApp.bitTorrentClient.contentManager_26  PiecesDownloaded:vector  ETV
attr source  ContentManager_PieceDownloaded
attr title  "Pieces Downloaded, vector"
vector 993  BasicTopology.peer[20].bitTorrentApp.bitTorrentClient.contentManager_26  TotalBytesUploaded:vector  ETV
attr source  ContentManager_TotalBytesUploaded
attr title  "Total of Bytes Uploaded, vector"
attr unit  B
vector 848  BasicTopology.peer[2].bitTorrentApp.bitTorrentClient.contentManager_26  TotalBytesDownloaded:vector  ETV
attr source  ContentManager_TotalBytesDownloaded
attr title  "Total of Bytes Downloaded, vector"
attr unit  B
vector 863  BasicTopology.peer[4].bitTorrentApp.bitTorrentClient.contentManager_26  PiecesDownloaded:vector  ETV
attr source  ContentManager_PieceDownloaded
attr title  "Pieces Downloaded, vector"
vector 865  BasicTopology.peer[4].bitTorrentApp.bitTorrentClient.contentManager_26  TotalBytesUploaded:vector  ETV
attr source  ContentManager_TotalBytesUploaded
attr title  "Total of Bytes Uploaded, vector"
attr unit  B
vector 856  BasicTopology.peer[3].bitTorrentApp.bitTorrentClient.contentManager_26  TotalBytesDownloaded:vector  ETV
attr source  ContentManager_TotalBytesDownloaded
attr title  "Total of Bytes Downloaded, vector"
attr unit  B
vector 928  BasicTopology.peer[12].bitTorrentApp.bitTorrentClient.contentManager_26  TotalBytesDownloaded:vector  ETV
attr source  ContentManager_TotalBytesDownloaded
attr title  "Total of Bytes Downloaded, vector"
attr unit  B
vector 1015  BasicTopology.peer[23].bitTorrentApp.bitTorrentClient.contentManager_26  PiecesDownloaded:vector  ETV
attr source  ContentManager_PieceDownloaded
attr title  "Pieces Downloaded, vector"
vector 1017  BasicTopology.peer[23].bitTorrentApp.bitTorrentClient.contentManager_26  TotalBytesUploaded:vector  ETV
attr source  ContentManager_TotalBytesUploaded
attr title  "Total of Bytes Uploaded, vector"
attr unit  B
vector 912  BasicTopology.peer[10].bitTorrentApp.bitTorrentClient.contentManager_26  TotalBytesDownloaded:vector  ETV
attr source  ContentManager_TotalBytesDownloaded
attr title  "Total of Bytes Downloaded, vector"
attr unit  B
vector 984  BasicTopology.peer[19].bitTorrentApp.bitTorrentClient.contentManager_26  TotalBytesDownloaded:vector  ETV
attr source  ContentManager_TotalBytesDownloaded
attr title  "Total of Bytes Downloaded, vector"
attr unit  B
vector 888  BasicTopology.peer[7].bitTorrentApp.bitTorrentClient.contentManager_26  TotalBytesDownloaded:vector  ETV
attr source  ContentManager_TotalBytesDownloaded
attr title  "Total of Bytes Downloaded, vector"
attr unit  B
vector 1007  BasicTopology.peer[22].bitTorrentApp.bitTorrentClient.contentManager_26  PiecesDownloaded:vector  ETV
attr source  ContentManager_PieceDownloaded
attr title  "Pieces Downloaded, vector"
vector 1009  BasicTopology.peer[22].bitTorrentApp.bitTorrentClient.contentManager_26  TotalBytesUploaded:vector  ETV
attr source  ContentManager_TotalBytesUploaded
attr title  "Total of Bytes Uploaded, vector"
attr unit  B
vector 887  BasicTopology.peer[7].bitTorrentApp.bitTorrentClient.contentManager_26  PiecesDownloaded:vector  ETV
attr source  ContentManager_PieceDownloaded
attr title  "Pieces Downloaded, vector"
vector 889  BasicTopology.peer[7].bitTorrentApp.bitTorrentClient.contentManager_26  TotalBytesUploaded:vector  ETV
attr source  ContentManager_TotalBytesUploaded
attr title  "Total of Bytes Uploaded, vector"
attr unit  B
vector 872  BasicTopology.peer[5].bitTorrentApp.bitTorrentClient.contentManager_26  TotalBytesDownloaded:vector  ETV
attr source  ContentManager_TotalBytesDownloaded
attr title  "Total of Bytes Downloaded, vector"
attr unit  B
vector 920  BasicTopology.peer[11].bitTorrentApp.bitTorrentClient.contentManager_26  TotalBytesDownloaded:vector  ETV
attr source  ContentManager_TotalBytesDownloaded
attr title  "Total of Bytes Downloaded, vector"
attr unit  B
vector 976  BasicTopology.peer[18].bitTorrentApp.bitTorrentClient.contentManager_26  TotalBytesDownloaded:vector  ETV
attr source  ContentManager_TotalBytesDownloaded
attr title  "Total of Bytes Downloaded, vector"
attr unit  B
vector 904  BasicTopology.peer[9].bitTorrentApp.bitTorrentClient.contentManager_26  TotalBytesDownloaded:vector  ETV
attr source  ContentManager_TotalBytesDownloaded
attr title  "Total of Bytes Downloaded, vector"
attr unit  B
vector 880  BasicTopology.peer[6].bitTorrentApp.bitTorrentClient.contentManager_26  TotalBytesDownloaded:vector  ETV
attr source  ContentManager_TotalBytesDownloaded
attr title  "Total of Bytes Downloaded, vector"
attr unit  B
vector 855  BasicTopology.peer[3].bitTorrentApp.bitTorrentClient.contentManager_26  PiecesDownloaded:vector  ETV
attr source  ContentManager_PieceDownloaded
attr title  "Pieces Downloaded, vector"
vector 944  BasicTopology.peer[14].bitTorrentApp.bitTorrentClient.contentManager_26  TotalBytesDownloaded:vector  ETV
attr source  ContentManager_TotalBytesDownloaded
attr title  "Total of Bytes Downloaded, vector"
attr unit  B
vector 919  BasicTopology.peer[11].bitTorrentApp.bitTorrentClient.contentManager_26  PiecesDownloaded:vector  ETV
attr source  ContentManager_PieceDownloaded
attr title  "Pieces Downloaded, vector"
vector 921  BasicTopology.peer[11].bitTorrentApp.bitTorrentClient.contentManager_26  TotalBytesUploaded:vector  ETV
attr source  ContentManager_TotalBytesUploaded
attr title  "Total of Bytes Uploaded, vector"
attr unit  B
vector 871  BasicTopology.peer[5].bitTorrentApp.bitTorrentClient.contentManager_26  PiecesDownloaded:vector  ETV
attr source  ContentManager_PieceDownloaded
attr title  "Pieces Downloaded, vector"
vector 873  BasicTopology.peer[5].bitTorrentApp.bitTorrentClient.contentManager_26  TotalBytesUploaded:vector  ETV
attr source  ContentManager_TotalBytesUploaded
attr title  "Total of Bytes Uploaded, vector"
attr unit  B
vector 952  BasicTopology.peer[15].bitTorrentApp.bitTorrentClient.contentManager_26  TotalBytesDownloaded:vector  ETV
attr source  ContentManager_TotalBytesDownloaded
attr title  "Total of Bytes Downloaded, vector"
attr unit  B
vector 935  BasicTopology.peer[13].bitTorrentApp.bitTorrentClient.contentManager_26  PiecesDownloaded:vector  ETV
attr source  ContentManager_PieceDownloaded
attr title  "Pieces Downloaded, vector"
vector 951  BasicTopology.peer[15].bitTorrentApp.bitTorrentClient.contentManager_26  PiecesDownloaded:vector  ETV
attr source  ContentManager_PieceDownloaded
attr title  "Pieces Downloaded, vector"
vector 975  BasicTopology.peer[18].bitTorrentApp.bitTorrentClient.contentManager_26  PiecesDownloaded:vector  ETV
attr source  ContentManager_PieceDownloaded
attr title  "Pieces Downloaded, vector"
vector 968  BasicTopology.peer[17].bitTorrentApp.bitTorrentClient.contentManager_26  TotalBytesDownloaded:vector  ETV
attr source  ContentManager_TotalBytesDownloaded
attr title  "Total of Bytes Downloaded, vector"
attr unit  B
vector 967  BasicTopology.peer[17].bitTorrentApp.bitTorrentClient.contentManager_26  PiecesDownloaded:vector  ETV
attr source  ContentManager_PieceDownloaded
attr title  "Pieces Downloaded, vector"
vector 903  BasicTopology.peer[9].bitTorrentApp.bitTorrentClient.contentManager_26  PiecesDownloaded:vector  ETV
attr source  ContentManager_PieceDownloaded
attr title  "Pieces Downloaded, vector"
vector 896  BasicTopology.peer[8].bitTorrentApp.bitTorrentClient.contentManager_26  TotalBytesDownloaded:vector  ETV
attr source  ContentManager_TotalBytesDownloaded
attr title  "Total of Bytes Downloaded, vector"
attr unit  B
vector 983  BasicTopology.peer[19].bitTorrentApp.bitTorrentClient.contentManager_26  PiecesDownloaded:vector  ETV
attr source  ContentManager_PieceDownloaded
attr title  "Pieces Downloaded, vector"
vector 847  BasicTopology.peer[2].bitTorrentApp.bitTorrentClient.contentManager_26  PiecesDownloaded:vector  ETV
attr source  ContentManager_PieceDownloaded
attr title  "Pieces Downloaded, vector"
vector 927  BasicTopology.peer[12].bitTorrentApp.bitTorrentClient.contentManager_26  PiecesDownloaded:vector  ETV
attr source  ContentManager_PieceDownloaded
attr title  "Pieces Downloaded, vector"
vector 1024  BasicTopology.peer[24].bitTorrentApp.bitTorrentClient.contentManager_26  TotalBytesDownloaded:vector  ETV
attr source  ContentManager_TotalBytesDownloaded
attr title  "Total of Bytes Downloaded, vector"
attr unit  B
vector 879  BasicTopology.peer[6].bitTorrentApp.bitTorrentClient.contentManager_26  PiecesDownloaded:vector  ETV
attr source  ContentManager_PieceDownloaded
attr title  "Pieces Downloaded, vector"
vector 1000  BasicTopology.peer[21].bitTorrentApp.bitTorrentClient.contentManager_26  TotalBytesDownloaded:vector  ETV
attr source  ContentManager_TotalBytesDownloaded
attr title  "Total of Bytes Downloaded, vector"
attr unit  B
vector 911  BasicTopology.peer[10].bitTorrentApp.bitTorrentClient.contentManager_26  PiecesDownloaded:vector  ETV
attr source  ContentManager_PieceDownloaded
attr title  "Pieces Downloaded, vector"
vector 960  BasicTopology.peer[16].bitTorrentApp.bitTorrentClient.contentManager_26  TotalBytesDownloaded:vector  ETV
attr source  ContentManager_TotalBytesDownloaded
attr title  "Total of Bytes Downloaded, vector"
attr unit  B
vector 895  BasicTopology.peer[8].bitTorrentApp.bitTorrentClient.contentManager_26  PiecesDownloaded:vector  ETV
attr source  ContentManager_PieceDownloaded
attr title  "Pieces Downloaded, vector"
vector 897  BasicTopology.peer[8].bitTorrentApp.bitTorrentClient.contentManager_26  TotalBytesUploaded:vector  ETV
attr source  ContentManager_TotalBytesUploaded
attr title  "Total of Bytes Uploaded, vector"
attr unit  B
vector 999  BasicTopology.peer[21].bitTorrentApp.bitTorrentClient.contentManager_26  PiecesDownloaded:vector  ETV
attr source  ContentManager_PieceDownloaded
attr title  "Pieces Downloaded, vector"
vector 1001  BasicTopology.peer[21].bitTorrentApp.bitTorrentClient.contentManager_26  TotalBytesUploaded:vector  ETV
attr source  ContentManager_TotalBytesUploaded
attr title  "Total of Bytes Uploaded, vector"
attr unit  B
vector 913  BasicTopology.peer[10].bitTorrentApp.bitTorrentClient.contentManager_26  TotalBytesUploaded:vector  ETV
attr source  ContentManager_TotalBytesUploaded
attr title  "Total of Bytes Uploaded, vector"
attr unit  B
vector 943  BasicTopology.peer[14].bitTorrentApp.bitTorrentClient.contentManager_26  PiecesDownloaded:vector  ETV
attr source  ContentManager_PieceDownloaded
attr title  "Pieces Downloaded, vector"
vector 905  BasicTopology.peer[9].bitTorrentApp.bitTorrentClient.contentManager_26  TotalBytesUploaded:vector  ETV
attr source  ContentManager_TotalBytesUploaded
attr title  "Total of Bytes Uploaded, vector"
attr unit  B
vector 959  BasicTopology.peer[16].bitTorrentApp.bitTorrentClient.contentManager_26  PiecesDownloaded:vector  ETV
attr source  ContentManager_PieceDownloaded
attr title  "Pieces Downloaded, vector"
vector 961  BasicTopology.peer[16].bitTorrentApp.bitTorrentClient.contentManager_26  TotalBytesUploaded:vector  ETV
attr source  ContentManager_TotalBytesUploaded
attr title  "Total of Bytes Uploaded, vector"
attr unit  B
vector 969  BasicTopology.peer[17].bitTorrentApp.bitTorrentClient.contentManager_26  TotalBytesUploaded:vector  ETV
attr source  ContentManager_TotalBytesUploaded
attr title  "Total of Bytes Uploaded, vector"
attr unit  B
vector 1023  BasicTopology.peer[24].bitTorrentApp.bitTorrentClient.contentManager_26  PiecesDownloaded:vector  ETV
attr source  ContentManager_PieceDownloaded
attr title  "Pieces Downloaded, vector"
vector 953  BasicTopology.peer[15].bitTorrentApp.bitTorrentClient.contentManager_26  TotalBytesUploaded:vector  ETV
attr source  ContentManager_TotalBytesUploaded
attr title  "Total of Bytes Uploaded, vector"
attr unit  B
vector 937  BasicTopology.peer[13].bitTorrentApp.bitTorrentClient.contentManager_26  TotalBytesUploaded:vector  ETV
attr source  ContentManager_TotalBytesUploaded
attr title  "Total of Bytes Uploaded, vector"
attr unit  B
vector 1025  BasicTopology.peer[24].bitTorrentApp.bitTorrentClient.contentManager_26  TotalBytesUploaded:vector  ETV
attr source  ContentManager_TotalBytesUploaded
attr title  "Total of Bytes Uploaded, vector"
attr unit  B
vector 857  BasicTopology.peer[3].bitTorrentApp.bitTorrentClient.contentManager_26  TotalBytesUploaded:vector  ETV
attr source  ContentManager_TotalBytesUploaded
attr title  "Total of Bytes Uploaded, vector"
attr unit  B
vector 849  BasicTopology.peer[2].bitTorrentApp.bitTorrentClient.contentManager_26  TotalBytesUploaded:vector  ETV
attr source  ContentManager_TotalBytesUploaded
attr title  "Total of Bytes Uploaded, vector"
attr unit  B
vector 985  BasicTopology.peer[19].bitTorrentApp.bitTorrentClient.contentManager_26  TotalBytesUploaded:vector  ETV
attr source  ContentManager_TotalBytesUploaded
attr title  "Total of Bytes Uploaded, vector"
attr unit  B
vector 929  BasicTopology.peer[12].bitTorrentApp.bitTorrentClient.contentManager_26  TotalBytesUploaded:vector  ETV
attr source  ContentManager_TotalBytesUploaded
attr title  "Total of Bytes Uploaded, vector"
attr unit  B
vector 945  BasicTopology.peer[14].bitTorrentApp.bitTorrentClient.contentManager_26  TotalBytesUploaded:vector  ETV
attr source  ContentManager_TotalBytesUploaded
attr title  "Total of Bytes Uploaded, vector"
attr unit  B
3	85	36001	36001
3	61902271	36114.628255917651	36114.628255918
5	86	36001	36001
5	61688294	36114.222653957674	36114.222653958
7	87	36001	36001
7	65889614	36122.098223971017	36122.098223971
9	88	36001	36001
9	78654389	36149.312615645451	36149.312615645
11	89	36001	36001
11	82779538	36185.352856955439	36185.352856955
13	90	36001	36001
13	81696435	36163.087387565947	36163.087387566
15	91	36001	36001
15	75523085	36141.847758655452	36141.847758655
17	92	36001	36001
17	77140931	36145.437170650079	36145.43717065
19	93	36001	36001
19	78516911	36148.940161418822	36148.940161419
21	94	36001	36001
21	73614007	36137.173100470695	36137.173100471
23	95	36001	36001
23	46195321	36085.482082026772	36085.482082027
25	96	36001	36001
25	79040249	36150.938806612213	36150.938806612
27	97	36001	36001
27	78668756	36149.475443633457	36149.475443633
29	98	36001	36001
29	69699101	36129.34604619002	36129.34604619
31	99	36001	36001
31	79308285	36151.974865390514	36151.974865391
33	100	36001	36001
33	80591112	36157.200849911597	36157.200849912
35	101	36001	36001
35	81351214	36160.73853450731	36160.738534507
37	102	36001	36001
37	77816037	36147.036135573981	36147.036135574
39	103	36001	36001
39	75903140	36142.713978540804	36142.713978541
41	104	36001	36001
41	41788323	36077.061386288016	36077.061386288
43	105	36001	36001
43	55120838	36102.711185783928	36102.711185784
45	106	36001	36001
45	55996803	36104.02011286382	36104.020112864
47	107	36001	36001
47	53416212	36099.737030544784	36099.737030545
49	108	36001	36001
49	75083441	36140.140814729001	36140.140814729
833	156510	36001.141489103124	32768
833	174822	36001.16239203241	65536
833	175098	36001.162694568548	98304
833	187995	36001.183349485997	131072
833	189429	36001.18710691618	163840
833	191127	36001.191544070193	196608
833	192967	36001.195343246165	229376
833	198562	36001.210138188489	262144
833	198670	36001.210558539145	294912
833	203163	36001.224338923011	327680
833	203349	36001.22493303274	360448
833	218321	36001.270991922431	393216
833	229295	36001.304431244516	425984
833	330101	36001.592590806823	458752
833	336446	36001.609876191973	491520
833	336556	36001.610137992694	524288
833	337040	36001.611737783187	557056
833	345180	36001.642520904337	589824
833	346365	36001.64508479079	622592
833	346428	36001.645246268324	655360
833	354747	36001.660896401156	688128
833	358951	36001.671610578345	720896
833	358953	36001.671704692009	753664
833	366713	36001.730912946039	786432
833	367262	36001.732276744694	819200
833	368637	36001.736342376016	851968
833	370210	36001.740508206202	884736
833	373328	36001.750476721053	917504
833	373330	36001.751041931164	950272
833	373602	36001.753371929696	983040
833	374051	36001.755101389041	1015808
833	377118	36001.764867357272	1048576
833	383389	36001.779335732407	1081344
833	433646	36002.346900911846	1114112
833	445739	36002.383910904407	1146880
833	512118	36002.550102351996	1179648
833	530659	36002.570625770518	1212416
833	531248	36002.571467514825	1245184
833	537719	36002.582531895524	1277952
833	548524	36002.599087906562	1310720
833	558669	36002.630702512536	1343488
833	564902	36002.65918765938	1376256
833	565770	36002.660873363243	1409024
833	566175	36002.661687627731	1441792
833	566623	36002.662443472681	1474560
833	583561	36002.867817334278	1507328
833	600350	36002.920742762702	1540096
833	636227	36003.228274703925	1572864
833	673030	36003.33145387134	1605632
833	708964	36003.424125157706	1638400
833	725259	36003.472058647041	1671168
833	753270	36003.554693905109	1703936
833	759614	36003.573461307514	1736704
833	788098	36003.967526334678	1769472
833	1192488	36004.639260341956	1802240
833	1242259	36004.708951332601	1835008
833	1502851	36005.729680235233	1867776
833	1535464	36006.017579017026	1900544
833	1535466	36006.027246345419	1933312
833	1535468	36006.043153828393	1966080
833	1535470	36006.044221099565	1998848
833	1544550	36006.333180785445	2031616
833	1571047	36006.406497759428	2064384
833	1601159	36006.48355601083	2097152
833	2058219	36007.63943041267	2129920
833	2069152	36007.656861146468	2162688
833	2090310	36007.701709524661	2195456
833	2133985	36007.794961756037	2228224
833	2150863	36007.852174863909	2260992
833	2163224	36007.890016540751	2293760
833	2234568	36008.128084633331	2326528
833	2249549	36008.176688245397	2359296
833	2267070	36008.229878422385	2392064
833	2293256	36008.308248424808	2424832
833	2496810	36008.792103272249	2457600
833	2546508	36008.867840771697	2490368
833	2790928	36009.41380737446	2523136
833	3056452	36009.942702234884	2555904
833	3618299	36011.007250992039	2588672
833	4222616	36012.143242848478	2621440
833	4266635	36012.229068309059	2654208
833	4415440	36012.540331299074	2686976
833	5441696	36014.315206630039	2719744
833	5448182	36014.326854247125	2752512
833	5448222	36014.32690069493	2785280
833	5448983	36014.328005678599	2818048
833	5449677	36014.329432293213	2850816
833	5450131	36014.329942821983	2883584
833	5450643	36014.330565394242	2916352
833	5760877	36014.93616836097	2949120
833	5792389	36014.989657609213	2981888
833	5826497	36015.052522890205	3014656
833	5879271	36015.119949901328	3047424
833	5945346	36015.196269499841	3080192
833	6020348	36015.339789569326	3112960
833	6447715	36016.237597654317	3145728
833	6452735	36016.250900929373	3178496
833	6452973	36016.251652709273	3211264
833	6456851	36016.265040246779	3244032
833	6487904	36016.36233782963	3276800
833	6510855	36016.418162379645	3309568
833	6533282	36016.482982669172	3342336
833	6541614	36016.502853295641	3375104
833	6581843	36016.569906007787	3407872
833	6601042	36016.604408303282	3440640
833	6723072	36016.792963297744	3473408
833	7155284	36017.687489440076	3506176
833	8693201	36020.821849920196	3538944
833	8807583	36021.062124904752	3571712
833	8808026	36021.062796851299	3604480
833	8818164	36021.081555917298	3637248
833	8820587	36021.085151622129	3670016
833	8820882	36021.085683469203	3702784
833	8835739	36021.108735118627	3735552
833	8839641	36021.114047574394	3768320
833	8840223	36021.114862399941	3801088
833	8843026	36021.119088356303	3833856
833	8844040	36021.120532188554	3866624
833	9985065	36022.974690968821	3899392
833	10698926	36024.118450125042	3932160
833	13140760	36028.076322696487	3964928
833	14410040	36030.252604368547	3997696
833	14996078	36031.086478581652	4030464
833	14996458	36031.08719064191	4063232
833	14996825	36031.087797692186	4096000
833	15019039	36031.126153988473	4128768
833	15019182	36031.126637347762	4161536
833	15036928	36031.155934936142	4194304
833	15038249	36031.15817219107	4227072
833	15045753	36031.172014701756	4259840
833	15053619	36031.186739980498	4292608
833	15066045	36031.205844607346	4325376
833	15197296	36031.397723706447	4358144
833	17320940	36034.964597900747	4390912
833	17388614	36035.063561002514	4423680
833	17448156	36035.165100979973	4456448
833	21232099	36042.269547815325	4489216
833	21293961	36042.380947304392	4521984
833	21843236	36043.501864449879	4554752
833	21924496	36043.641726307785	4587520
833	22857987	36045.506422765346	4620288
833	22885408	36045.545789597414	4653056
833	22917590	36045.592989397914	4685824
833	22939796	36045.626556611366	4718592
833	22976504	36045.68383985719	4751360
833	23039808	36045.819024021372	4784128
833	25338185	36049.727290503476	4816896
833	26549047	36051.81737982997	4849664
833	26599061	36051.894607450437	4882432
833	26642914	36051.966773464606	4915200
833	26645395	36051.970877282291	4947968
833	26707164	36052.072571238813	4980736
833	26717084	36052.084867361629	5013504
833	26717202	36052.084956505671	5046272
833	26717681	36052.085491085673	5079040
833	26741267	36052.114417448194	5111808
833	26742339	36052.115531184488	5144576
833	26742810	36052.116095452686	5177344
833	26755692	36052.13153433322	5210112
833	26767197	36052.145056674403	5242880
833	26769103	36052.147411545675	5275648
833	26799832	36052.181741522389	5308416
833	27305165	36053.000301053143	5341184
833	27317828	36053.021015547295	5373952
833	27376355	36053.101253654657	5406720
833	27446939	36053.229902007041	5439488
833	27504466	36053.305338276282	5472256
833	27601245	36053.430072418592	5505024
833	27769039	36053.641037552968	5537792
833	27822657	36053.7024235618	5570560
833	28046056	36054.105974853698	5603328
833	28093336	36054.184468286385	5636096
833	28144826	36054.254107111417	5668864
833	28190330	36054.315772383662	5701632
833	28260378	36054.409511041346	5734400
833	28512454	36054.784607759373	5767168
833	28592359	36054.889472131878	5799936
833	28629200	36054.939982488213	5832704
833	28941293	36055.478661655154	5865472
833	30284039	36057.411517762198	5898240
833	30343697	36057.504014802108	5931008
833	30389999	36057.578809923254	5963776
833	30430565	36057.638266745041	5996544
833	31073291	36058.764968733033	6029312
833	31101027	36058.806935911472	6062080
833	31247257	36059.091276846753	6094848
833	31330813	36059.20737466081	6127616
833	31358491	36059.247106312642	6160384
833	31750380	36059.885327666422	6193152
833	31794076	36059.952793950949	6225920
833	32037428	36060.32337159072	6258688
833	32094993	36060.400198332791	6291456
833	33192554	36062.115531341488	6324224
833	34510217	36064.198578912901	6356992
833	34597116	36064.344899358621	6389760
833	34649222	36064.422289220643	6422528
833	34800463	36064.699419617261	6455296
833	35574705	36065.908999633344	6488064
833	37421975	36069.106469664005	6520832
833	38671478	36071.498982706057	6553600
833	39777346	36073.471936562669	6586368
833	45817593	36084.624617861661	6619136