file 216513 1593887683                                          
version 2
run Test-10-20200526-12:14:53-5244
attr configname Test
attr datetime 20200526-12:14:53
attr experiment "\"Simulation Test\""
attr inifile BasicConfig.ini
attr iterationvars ""
attr iterationvars2 $repetition=10
attr measurement "\"Peers: $peers, Rate: $rate\""
attr network BasicTopology
attr processid 5244
attr repetition 10
attr replication #10
attr resultdir results
attr runnumber 10
attr seedset 10
vector 3  BasicTopology.peer[1].bitTorrentApp.bitTorrentClient  DownloadComplete_Test:vector  ETV
attr source BitTorrentClient_DownloadComplete_Test
attr title "Descargas completas (prueba), vector"
3	20146 63 85 27282002 36001 36047.740565306076 2 36001 36047.740565306 72048.740565306 2595511600.8636
vector 5  BasicTopology.peer[2].bitTorrentApp.bitTorrentClient  DownloadComplete_Test:vector  ETV
attr source BitTorrentClient_DownloadComplete_Test
attr title "Descargas completas (prueba), vector"
5	20209 63 86 56469762 36001 36097.478053641763 2 36001 36097.478053642 72098.478053642 2599099922.8332
vector 7  BasicTopology.peer[3].bitTorrentApp.bitTorrentClient  DownloadComplete_Test:vector  ETV
attr source BitTorrentClient_DownloadComplete_Test
attr title "Descargas completas (prueba), vector"
7	20272 62 87 64899267 36001 36115.62510121516 2 36001 36115.625101215 72116.625101215 2600410377.4515
vector 9  BasicTopology.peer[4].bitTorrentApp.bitTorrentClient  DownloadComplete_Test:vector  ETV
attr source BitTorrentClient_DownloadComplete_Test
attr title "Descargas completas (prueba), vector"
9	20334 63 88 62873086 36001 36110.434352587203 2 36001 36110.434352587 72111.434352587 2600035470.1325
vector 11  BasicTopology.peer[5].bitTorrentApp.bitTorrentClient  DownloadComplete_Test:vector  ETV
attr source BitTorrentClient_DownloadComplete_Test
attr title "Descargas completas (prueba), vector"
11	20397 65 89 60988802 36001 36106.124473196501 2 36001 36106.124473197 72107.124473197 2599724225.474
vector 13  BasicTopology.peer[6].bitTorrentApp.bitTorrentClient  DownloadComplete_Test:vector  ETV
attr source BitTorrentClient_DownloadComplete_Test
attr title "Descargas completas (prueba), vector"
13	20462 65 90 66959291 36001 36120.407257391994 2 36001 36120.407257392 72121.407257392 2600755821.4399
vector 15  BasicTopology.peer[7].bitTorrentApp.bitTorrentClient  DownloadComplete_Test:vector  ETV
attr source BitTorrentClient_DownloadComplete_Test
attr title "Descargas completas (prueba), vector"
15	20527 65 91 78658679 36001 36306.468720638825 2 36001 36306.468720639 72307.468720639 2614231671.9627
vector 17  BasicTopology.peer[8].bitTorrentApp.bitTorrentClient  DownloadComplete_Test:vector  ETV
attr source BitTorrentClient_DownloadComplete_Test
attr title "Descargas completas (prueba), vector"
17	20592 65 92 77359829 36001 36157.670172539245 2 36001 36157.670172539 72158.670172539 2603449113.3061
vector 19  BasicTopology.peer[9].bitTorrentApp.bitTorrentClient  DownloadComplete_Test:vector  ETV
attr source BitTorrentClient_DownloadComplete_Test
attr title "Descargas completas (prueba), vector"
19	20657 65 93 61890178 36001 36108.230649635741 2 36001 36108.230649636 72109.230649636 2599876321.6473
vector 21  BasicTopology.peer[10].bitTorrentApp.bitTorrentClient  DownloadComplete_Test:vector  ETV
attr source BitTorrentClient_DownloadComplete_Test
attr title "Descargas completas (prueba), vector"
21	20722 65 94 33810493 36001 36057.960670527073 2 36001 36057.960670527 72058.960670527 2596248528.7173
vector 23  BasicTopology.peer[11].bitTorrentApp.bitTorrentClient  DownloadComplete_Test:vector  ETV
attr source BitTorrentClient_DownloadComplete_Test
attr title "Descargas completas (prueba), vector"
23	20787 65 95 51425923 36001 36087.739836053275 2 36001 36087.739836053 72088.739836053 2598396967.4746
vector 25  BasicTopology.peer[12].bitTorrentApp.bitTorrentClient  DownloadComplete_Test:vector  ETV
attr source BitTorrentClient_DownloadComplete_Test
attr title "Descargas completas (prueba), vector"
25	20852 65 96 67684819 36001 36122.238374378842 2 36001 36122.238374379 72123.238374379 2600888106.1755
vector 27  BasicTopology.peer[13].bitTorrentApp.bitTorrentClient  DownloadComplete_Test:vector  ETV
attr source BitTorrentClient_DownloadComplete_Test
attr title "Descargas completas (prueba), vector"
27	20917 63 97 68787088 36001 36125.1767048183 2 36001 36125.176704818 72126.176704818 2601100392.9543
vector 29  BasicTopology.peer[14].bitTorrentApp.bitTorrentClient  DownloadComplete_Test:vector  ETV
attr source BitTorrentClient_DownloadComplete_Test
attr title "Descargas completas (prueba), vector"
29	20980 65 98 73916540 36001 36137.485977255325 2 36001 36137.485977255 72138.485977255 2601989893.7563
vector 31  BasicTopology.peer[15].bitTorrentApp.bitTorrentClient  DownloadComplete_Test:vector  ETV
attr source BitTorrentClient_DownloadComplete_Test
attr title "Descargas completas (prueba), vector"
31	21045 65 99 64179979 36001 36114.036411184242 2 36001 36114.036411184 72115.036411184 2600295626.9083
vector 33  BasicTopology.peer[16].bitTorrentApp.bitTorrentClient  DownloadComplete_Test:vector  ETV
attr source BitTorrentClient_DownloadComplete_Test
attr title "Descargas completas (prueba), vector"
33	21110 66 100 66662529 36001 36119.837206284028 2 36001 36119.837206284 72120.837206284 2600714640.8085
vector 35  BasicTopology.peer[17].bitTorrentApp.bitTorrentClient  DownloadComplete_Test:vector  ETV
attr source BitTorrentClient_DownloadComplete_Test
attr title "Descargas completas (prueba), vector"
35	21176 66 101 78186442 36001 36302.893427386447 2 36001 36302.893427386 72303.893427386 2613972072.2001
vector 37  BasicTopology.peer[18].bitTorrentApp.bitTorrentClient  DownloadComplete_Test:vector  ETV
attr source BitTorrentClient_DownloadComplete_Test
attr title "Descargas completas (prueba), vector"
37	21242 65 102 69705150 36001 36127.15951710354 2 36001 36127.159517104 72128.159517104 2601243655.7743
vector 39  BasicTopology.peer[19].bitTorrentApp.bitTorrentClient  DownloadComplete_Test:vector  ETV
attr source BitTorrentClient_DownloadComplete_Test
attr title "Descargas completas (prueba), vector"
39	21307 66 103 76299864 36001 36147.654597693782 2 36001 36147.654597694 72148.654597694 2602724933.9142
vector 41  BasicTopology.peer[20].bitTorrentApp.bitTorrentClient  DownloadComplete_Test:vector  ETV
attr source BitTorrentClient_DownloadComplete_Test
attr title "Descargas completas (prueba), vector"
41	21373 66 104 70653108 36001 36129.357153767632 2 36001 36129.357153768 72130.357153768 2601402449.3445
vector 43  BasicTopology.peer[21].bitTorrentApp.bitTorrentClient  DownloadComplete_Test:vector  ETV
attr source BitTorrentClient_DownloadComplete_Test
attr title "Descargas completas (prueba), vector"
43	21439 66 105 60760379 36001 36105.666190887537 2 36001 36105.666190888 72106.666190888 2599691132.0878
vector 45  BasicTopology.peer[22].bitTorrentApp.bitTorrentClient  DownloadComplete_Test:vector  ETV
attr source BitTorrentClient_DownloadComplete_Test
attr title "Descargas completas (prueba), vector"
45	21505 66 106 67057838 36001 36120.766848053293 2 36001 36120.766848053 72121.766848053 2600781798.6914
vector 47  BasicTopology.peer[23].bitTorrentApp.bitTorrentClient  DownloadComplete_Test:vector  ETV
attr source BitTorrentClient_DownloadComplete_Test
attr title "Descargas completas (prueba), vector"
47	21571 65 107 62824164 36001 36110.32347537544 2 36001 36110.323475375 72111.323475375 2600027462.4962
vector 49  BasicTopology.peer[24].bitTorrentApp.bitTorrentClient  DownloadComplete_Test:vector  ETV
attr source BitTorrentClient_DownloadComplete_Test
attr title "Descargas completas (prueba), vector"
49	21636 66 108 63593403 36001 36112.144987565774 2 36001 36112.144987566 72113.144987566 2600159016.603
vector 833  BasicTopology.peer[0].bitTorrentApp.bitTorrentClient.contentManager_26  TotalBytesUploaded:vector  ETV
attr source ContentManager_TotalBytesUploaded
attr title "Total of Bytes Uploaded, vector"
attr unit B
833	21702 11144 176980 71174886 36001.191062723745 36130.855734104533 285 32768 9338880 1335459840 8.3290529097318e+15
vector 840  BasicTopology.peer[1].bitTorrentApp.bitTorrentClient.contentManager_26  TotalBytesDownloaded:vector  ETV
attr source ContentManager_TotalBytesDownloaded
attr title "Total of Bytes Downloaded, vector"
attr unit B
840	33248 3741 418248 27282002 36002.413991481876 36047.740565306076 96 32768 3145728 152567808 3.2162433099366e+14
vector 839  BasicTopology.peer[1].bitTorrentApp.bitTorrentClient.contentManager_26  PiecesDownloaded:vector  ETV
attr source ContentManager_PieceDownloaded
attr title "Pieces Downloaded, vector"
839	32846 402 1042351 27282002 36004.761934583117 36047.740565306076 12 0 11 66 506
vector 841  BasicTopology.peer[1].bitTorrentApp.bitTorrentClient.contentManager_26  TotalBytesUploaded:vector  ETV
attr source ContentManager_TotalBytesUploaded
attr title "Total of Bytes Uploaded, vector"
attr unit B
841	36989 10428 1069472 72602912 36004.797237104521 36134.195555829164 265 32768 8683520 1154908160 6.6983934138778e+15
vector 920  BasicTopology.peer[11].bitTorrentApp.bitTorrentClient.contentManager_26  TotalBytesDownloaded:vector  ETV
attr source ContentManager_TotalBytesDownloaded
attr title "Total of Bytes Downloaded, vector"
attr unit B
920	122253 4133 1300499 51425923 36005.546382359054 36087.739836053275 105 32768 3440640 182353920 4.2026791862272e+14
vector 872  BasicTopology.peer[5].bitTorrentApp.bitTorrentClient.contentManager_26  TotalBytesDownloaded:vector  ETV
attr source ContentManager_TotalBytesDownloaded
attr title "Total of Bytes Downloaded, vector"
attr unit B
872	79705 3773 1450144 60988802 36006.195155338052 36106.124473196501 96 32768 3145728 152567808 3.2162433099366e+14
vector 1008  BasicTopology.peer[22].bitTorrentApp.bitTorrentClient.contentManager_26  TotalBytesDownloaded:vector  ETV
attr source ContentManager_TotalBytesDownloaded
attr title "Total of Bytes Downloaded, vector"
attr unit B
1008	193900 3858 1504995 67057838 36006.339218354885 36120.766848053293 96 32768 3145728 152567808 3.2162433099366e+14
vector 928  BasicTopology.peer[12].bitTorrentApp.bitTorrentClient.contentManager_26  TotalBytesDownloaded:vector  ETV
attr source ContentManager_TotalBytesDownloaded
attr title "Total of Bytes Downloaded, vector"
attr unit B
928	133077 3779 1708955 67684819 36007.070409859383 36122.238374378842 96 32768 3145728 152567808 3.2162433099366e+14
vector 864  BasicTopology.peer[4].bitTorrentApp.bitTorrentClient.contentManager_26  TotalBytesDownloaded:vector  ETV
attr source ContentManager_TotalBytesDownloaded
attr title "Total of Bytes Downloaded, vector"
attr unit B
864	67677 3780 1830092 62873086 36007.532128065137 36110.434352587203 96 32768 3145728 152567808 3.2162433099366e+14
vector 919  BasicTopology.peer[11].bitTorrentApp.bitTorrentClient.contentManager_26  PiecesDownloaded:vector  ETV
attr source ContentManager_PieceDownloaded
attr title "Pieces Downloaded, vector"
919	121846 407 1988806 51425923 36007.969659777047 36087.739836053275 12 0 11 66 506
vector 921  BasicTopology.peer[11].bitTorrentApp.bitTorrentClient.contentManager_26  TotalBytesUploaded:vector  ETV
attr source ContentManager_TotalBytesUploaded
attr title "Total of Bytes Uploaded, vector"
attr unit B
921	126386 6284 2012218 49768184 36008.010828434478 36084.739277321142 160 32768 5242880 422051840 1.4797880321638e+15
vector 880  BasicTopology.peer[6].bitTorrentApp.bitTorrentClient.contentManager_26  TotalBytesDownloaded:vector  ETV
attr source ContentManager_TotalBytesDownloaded
attr title "Total of Bytes Downloaded, vector"
attr unit B
880	89495 3782 2112156 66959291 36008.205461548434 36120.407257391994 96 32768 3145728 152567808 3.2162433099366e+14
vector 871  BasicTopology.peer[5].bitTorrentApp.bitTorrentClient.contentManager_26  PiecesDownloaded:vector  ETV
attr source ContentManager_PieceDownloaded
attr title "Pieces Downloaded, vector"
871	79297 408 2370425 60988802 36009.072774080755 36106.124473196501 12 0 11 66 506
vector 873  BasicTopology.peer[5].bitTorrentApp.bitTorrentClient.contentManager_26  TotalBytesUploaded:vector  ETV
attr source ContentManager_TotalBytesUploaded
attr title "Total of Bytes Uploaded, vector"
attr unit B
873	83478 5608 2412444 57746267 36009.147515409384 36099.730662107228 143 32768 4685824 337379328 1.0576185167708e+15
vector 936  BasicTopology.peer[13].bitTorrentApp.bitTorrentClient.contentManager_26  TotalBytesDownloaded:vector  ETV
attr source ContentManager_TotalBytesDownloaded
attr title "Total of Bytes Downloaded, vector"
attr unit B
936	143939 3789 2508711 68787088 36009.330241250727 36125.1767048183 96 32768 3145728 152567808 3.2162433099366e+14
vector 912  BasicTopology.peer[10].bitTorrentApp.bitTorrentClient.contentManager_26  TotalBytesDownloaded:vector  ETV
attr source ContentManager_TotalBytesDownloaded
attr title "Total of Bytes Downloaded, vector"
attr unit B
912	113405 3785 2663522 33810493 36009.697097534738 36057.960670527073 96 32768 3145728 152567808 3.2162433099366e+14
vector 935  BasicTopology.peer[13].bitTorrentApp.bitTorrentClient.contentManager_26  PiecesDownloaded:vector  ETV
attr source ContentManager_PieceDownloaded
attr title "Pieces Downloaded, vector"
935	143532 407 2733430 68787088 36009.877283355263 36125.1767048183 12 0 11 66 506
vector 937  BasicTopology.peer[13].bitTorrentApp.bitTorrentClient.contentManager_26  TotalBytesUploaded:vector  ETV
attr source ContentManager_TotalBytesUploaded
attr title "Total of Bytes Uploaded, vector"
attr unit B
937	147728 2779 2740807 54689662 36009.887716125271 36094.14837764003 72 32768 2359296 86114304 1.3638668648448e+14
vector 856  BasicTopology.peer[3].bitTorrentApp.bitTorrentClient.contentManager_26  TotalBytesDownloaded:vector  ETV
attr source ContentManager_TotalBytesDownloaded
attr title "Total of Bytes Downloaded, vector"
attr unit B
856	56725 3777 3211951 64899267 36010.731892398913 36115.62510121516 96 32768 3145728 152567808 3.2162433099366e+14
vector 896  BasicTopology.peer[8].bitTorrentApp.bitTorrentClient.contentManager_26  TotalBytesDownloaded:vector  ETV
attr source ContentManager_TotalBytesDownloaded
attr title "Total of Bytes Downloaded, vector"
attr unit B
896	99735 3786 3410054 77359829 36011.083146554891 36157.670172539245 96 32768 3145728 152567808 3.2162433099366e+14
vector 1000  BasicTopology.peer[21].bitTorrentApp.bitTorrentClient.contentManager_26  TotalBytesDownloaded:vector  ETV
attr source ContentManager_TotalBytesDownloaded
attr title "Total of Bytes Downloaded, vector"
attr unit B
1000	184741 3878 3539619 60760379 36011.269680423751 36105.666190887537 96 32768 3145728 152567808 3.2162433099366e+14
vector 911  BasicTopology.peer[10].bitTorrentApp.bitTorrentClient.contentManager_26  PiecesDownloaded:vector  ETV
attr source ContentManager_PieceDownloaded
attr title "Pieces Downloaded, vector"
911	112998 407 3606165 33810493 36011.364723583537 36057.960670527073 12 0 11 66 506
vector 913  BasicTopology.peer[10].bitTorrentApp.bitTorrentClient.contentManager_26  TotalBytesUploaded:vector  ETV
attr source ContentManager_TotalBytesUploaded
attr title "Total of Bytes Uploaded, vector"
attr unit B
913	117190 4656 3652820 72730009 36011.430309679643 36134.410565543242 118 32768 3866624 230064128 5.9556056635802e+14
vector 863  BasicTopology.peer[4].bitTorrentApp.bitTorrentClient.contentManager_26  PiecesDownloaded:vector  ETV
attr source ContentManager_PieceDownloaded
attr title "Pieces Downloaded, vector"
863	67268 409 3745975 62873086 36011.581059879634 36110.434352587203 12 0 11 66 506
vector 865  BasicTopology.peer[4].bitTorrentApp.bitTorrentClient.contentManager_26  TotalBytesUploaded:vector  ETV
attr source ContentManager_TotalBytesUploaded
attr title "Total of Bytes Uploaded, vector"
attr unit B
865	71457 7840 3762197 53199648 36011.606233054652 36091.049592250916 198 32768 6488064 645562368 2.7993512356086e+15
vector 888  BasicTopology.peer[7].bitTorrentApp.bitTorrentClient.contentManager_26  TotalBytesDownloaded:vector  ETV
attr source ContentManager_TotalBytesDownloaded
attr title "Total of Bytes Downloaded, vector"
attr unit B
888	95542 3785 3808238 78658679 36011.683441867496 36306.468720638825 96 32768 3145728 152567808 3.2162433099366e+14
vector 895  BasicTopology.peer[8].bitTorrentApp.bitTorrentClient.contentManager_26  PiecesDownloaded:vector  ETV
attr source ContentManager_PieceDownloaded
attr title "Pieces Downloaded, vector"
895	99327 408 4365125 77359829 36012.731349683351 36157.670172539245 12 0 11 66 506
vector 897  BasicTopology.peer[8].bitTorrentApp.bitTorrentClient.contentManager_26  TotalBytesUploaded:vector  ETV
attr source ContentManager_TotalBytesUploaded
attr title "Total of Bytes Uploaded, vector"
attr unit B
897	103521 1343 4377976 40355091 36012.747989929379 36069.011044444388 35 32768 1146880 20643840 16009490595840
vector 904  BasicTopology.peer[9].bitTorrentApp.bitTorrentClient.contentManager_26  TotalBytesDownloaded:vector  ETV
attr source ContentManager_TotalBytesDownloaded
attr title "Total of Bytes Downloaded, vector"
attr unit B
904	105271 3787 4413994 61890178 36012.797535928437 36108.230649635741 96 32768 3145728 152567808 3.2162433099366e+14
vector 848  BasicTopology.peer[2].bitTorrentApp.bitTorrentClient.contentManager_26  TotalBytesDownloaded:vector  ETV
attr source ContentManager_TotalBytesDownloaded
attr title "Total of Bytes Downloaded, vector"
attr unit B
848	47826 3782 4530882 56469762 36012.957334432975 36097.478053641763 96 32768 3145728 152567808 3.2162433099366e+14
vector 1007  BasicTopology.peer[22].bitTorrentApp.bitTorrentClient.contentManager_26  PiecesDownloaded:vector  ETV
attr source ContentManager_PieceDownloaded
attr title "Pieces Downloaded, vector"
1007	193484 416 4678997 67057838 36013.133596148075 36120.766848053293 12 0 11 66 506
vector 1009  BasicTopology.peer[22].bitTorrentApp.bitTorrentClient.contentManager_26  TotalBytesUploaded:vector  ETV
attr source ContentManager_TotalBytesUploaded
attr title "Total of Bytes Uploaded, vector"
attr unit B
1009	197758 5830 4695462 65924561 36013.160677421154 36118.271528110637 144 32768 4718592 342097920 1.0798836272333e+15
vector 968  BasicTopology.peer[17].bitTorrentApp.bitTorrentClient.contentManager_26  TotalBytesDownloaded:vector  ETV
attr source ContentManager_TotalBytesDownloaded
attr title "Total of Bytes Downloaded, vector"
attr unit B
968	164327 4471 4832580 78186442 36013.473528821752 36302.893427386447 113 32768 3702784 211058688 5.2330847902106e+14
vector 879  BasicTopology.peer[6].bitTorrentApp.bitTorrentClient.contentManager_26  PiecesDownloaded:vector  ETV
attr source ContentManager_PieceDownloaded
attr title "Pieces Downloaded, vector"
879	89086 409 5043044 66959291 36013.840009149386 36120.407257391994 12 0 11 66 506
vector 881  BasicTopology.peer[6].bitTorrentApp.bitTorrentClient.contentManager_26  TotalBytesUploaded:vector  ETV
attr source ContentManager_TotalBytesUploaded
attr title "Total of Bytes Uploaded, vector"
attr unit B
881	93277 1856 5066093 44312175 36013.887318357005 36075.629506336272 48 32768 1572864 38535168 40827959115776
vector 903  BasicTopology.peer[9].bitTorrentApp.bitTorrentClient.contentManager_26  PiecesDownloaded:vector  ETV
attr source ContentManager_PieceDownloaded
attr title "Pieces Downloaded, vector"
903	104864 407 5223712 61890178 36014.140339741274 36108.230649635741 12 0 11 66 506
vector 905  BasicTopology.peer[9].bitTorrentApp.bitTorrentClient.contentManager_26  TotalBytesUploaded:vector  ETV
attr source ContentManager_TotalBytesUploaded
attr title "Total of Bytes Uploaded, vector"
attr unit B
905	109058 3940 5289450 25166695 36014.225799345216 36044.620252430128 100 32768 3276800 165478400 3.633005461504e+14
vector 927  BasicTopology.peer[12].bitTorrentApp.bitTorrentClient.contentManager_26  PiecesDownloaded:vector  ETV
attr source ContentManager_PieceDownloaded
attr title "Pieces Downloaded, vector"
927	132670 407 5294491 67684819 36014.231719420665 36122.238374378842 12 0 11 66 506
vector 1024  BasicTopology.peer[24].bitTorrentApp.bitTorrentClient.contentManager_26  TotalBytesDownloaded:vector  ETV
attr source ContentManager_TotalBytesDownloaded
attr title "Total of Bytes Downloaded, vector"
attr unit B
1024	211227 3887 5413964 63593403 36014.447424521705 36112.144987565774 96 32768 3145728 152567808 3.2162433099366e+14
vector 855  BasicTopology.peer[3].bitTorrentApp.bitTorrentClient.contentManager_26  PiecesDownloaded:vector  ETV
attr source ContentManager_PieceDownloaded
attr title "Pieces Downloaded, vector"
855	56320 405 5474849 64899267 36014.554181122094 36115.62510121516 12 0 11 66 506
vector 984  BasicTopology.peer[19].bitTorrentApp.bitTorrentClient.contentManager_26  TotalBytesDownloaded:vector  ETV
attr source ContentManager_TotalBytesDownloaded
attr title "Total of Bytes Downloaded, vector"
attr unit B
984	173443 3782 5641921 76299864 36014.764377100297 36147.654597693782 96 32768 3145728 152567808 3.2162433099366e+14
vector 1016  BasicTopology.peer[23].bitTorrentApp.bitTorrentClient.contentManager_26  TotalBytesDownloaded:vector  ETV
attr source ContentManager_TotalBytesDownloaded
attr title "Total of Bytes Downloaded, vector"
attr unit B
1016	204009 3887 5899087 62824164 36015.162572841131 36110.32347537544 96 32768 3145728 152567808 3.2162433099366e+14
vector 929  BasicTopology.peer[12].bitTorrentApp.bitTorrentClient.contentManager_26  TotalBytesUploaded:vector  ETV
attr source ContentManager_TotalBytesUploaded
attr title "Total of Bytes Uploaded, vector"
attr unit B
929	136856 6676 6420221 67690529 36016.028812763131 36122.3075135514 169 32768 5537792 470712320 1.7429460470989e+15
vector 952  BasicTopology.peer[15].bitTorrentApp.bitTorrentClient.contentManager_26  TotalBytesDownloaded:vector  ETV
attr source ContentManager_TotalBytesDownloaded
attr title "Total of Bytes Downloaded, vector"
attr unit B
952	155619 3788 6651165 64179979 36016.339611426577 36114.036411184242 96 32768 3145728 152567808 3.2162433099366e+14
vector 960  BasicTopology.peer[16].bitTorrentApp.bitTorrentClient.contentManager_26  TotalBytesDownloaded:vector  ETV
attr source ContentManager_TotalBytesDownloaded
attr title "Total of Bytes Downloaded, vector"
attr unit B
960	160124 3794 6692921 66662529 36016.396996379294 36119.837206284028 96 32768 3145728 152567808 3.2162433099366e+14
vector 857  BasicTopology.peer[3].bitTorrentApp.bitTorrentClient.contentManager_26  TotalBytesUploaded:vector  ETV
attr source ContentManager_TotalBytesUploaded
attr title "Total of Bytes Uploaded, vector"
attr unit B
857	60502 6766 7289409 64922363 36017.268744264897 36115.678879907821 171 32768 5603328 481886208 1.8053744704881e+15
vector 944  BasicTopology.peer[14].bitTorrentApp.bitTorrentClient.contentManager_26  TotalBytesDownloaded:vector  ETV
attr source ContentManager_TotalBytesDownloaded
attr title "Total of Bytes Downloaded, vector"
attr unit B
944	150916 3832 7370146 73916540 36017.384832722091 36137.485977255325 97 32768 3178496 155746304 3.3172716781568e+14
vector 887  BasicTopology.peer[7].bitTorrentApp.bitTorrentClient.contentManager_26  PiecesDownloaded:vector  ETV
attr source ContentManager_PieceDownloaded
attr title "Pieces Downloaded, vector"
887	95133 409 7553815 78658679 36017.618426786962 36306.468720638825 12 0 11 66 506
vector 999  BasicTopology.peer[21].bitTorrentApp.bitTorrentClient.contentManager_26  PiecesDownloaded:vector  ETV
attr source ContentManager_PieceDownloaded
attr title "Pieces Downloaded, vector"
999	184334 407 7874676 60760379 36018.111019620634 36105.666190887537 12 0 11 66 506
vector 959  BasicTopology.peer[16].bitTorrentApp.bitTorrentClient.contentManager_26  PiecesDownloaded:vector  ETV
attr source ContentManager_PieceDownloaded
attr title "Pieces Downloaded, vector"
959	159716 408 8293329 66662529 36018.692233407574 36119.837206284028 12 0 11 66 506
vector 983  BasicTopology.peer[19].bitTorrentApp.bitTorrentClient.contentManager_26  PiecesDownloaded:vector  ETV
attr source ContentManager_PieceDownloaded
attr title "Pieces Downloaded, vector"
983	173034 409 9095120 76299864 36019.921991537293 36147.654597693782 12 0 11 66 506
vector 951  BasicTopology.peer[15].bitTorrentApp.bitTorrentClient.contentManager_26  PiecesDownloaded:vector  ETV
attr source ContentManager_PieceDownloaded
attr title "Pieces Downloaded, vector"
951	155211 408 9757093 64179979 36020.906784595724 36114.036411184242 12 0 11 66 506
vector 1023  BasicTopology.peer[24].bitTorrentApp.bitTorrentClient.contentManager_26  PiecesDownloaded:vector  ETV
attr source ContentManager_PieceDownloaded
attr title "Pieces Downloaded, vector"
1023	210807 420 10942971 63593403 36022.719228025288 36112.144987565774 12 0 11 66 506
vector 943  BasicTopology.peer[14].bitTorrentApp.bitTorrentClient.contentManager_26  PiecesDownloaded:vector  ETV
attr source ContentManager_PieceDownloaded
attr title "Pieces Downloaded, vector"
943	150507 409 11408662 73916540 36023.435164094788 36137.485977255325 12 0 11 66 506
vector 976  BasicTopology.peer[18].bitTorrentApp.bitTorrentClient.contentManager_26  TotalBytesDownloaded:vector  ETV
attr source ContentManager_TotalBytesDownloaded
attr title "Total of Bytes Downloaded, vector"
attr unit B
976	169205 3829 11452627 69705150 36023.490252825425 36127.15951710354 97 32768 3178496 155746304 3.3172716781568e+14
vector 992  BasicTopology.peer[20].bitTorrentApp.bitTorrentClient.contentManager_26  TotalBytesDownloaded:vector  ETV
attr source ContentManager_TotalBytesDownloaded
attr title "Total of Bytes Downloaded, vector"
attr unit B
992	177941 3797 11929979 70653108 36024.368970747103 36129.357153767632 96 32768 3145728 152567808 3.2162433099366e+14
vector 847  BasicTopology.peer[2].bitTorrentApp.bitTorrentClient.contentManager_26  PiecesDownloaded:vector  ETV
attr source ContentManager_PieceDownloaded
attr title "Pieces Downloaded, vector"
847	47417 409 12457565 56469762 36025.349134589019 36097.478053641763 12 0 11 66 506
vector 1015  BasicTopology.peer[23].bitTorrentApp.bitTorrentClient.contentManager_26  PiecesDownloaded:vector  ETV
attr source ContentManager_PieceDownloaded
attr title "Pieces Downloaded, vector"
1015	203588 421 12615212 62824164 36025.697642406041 36110.32347537544 12 0 11 66 506
vector 849  BasicTopology.peer[2].bitTorrentApp.bitTorrentClient.contentManager_26  TotalBytesUploaded:vector  ETV
attr source ContentManager_TotalBytesUploaded
attr title "Total of Bytes Uploaded, vector"
attr unit B
849	51608 4712 12625340 56503147 36025.717941600706 36097.536457223473 119 32768 3899392 233963520 6.1076582432768e+14
vector 1017  BasicTopology.peer[23].bitTorrentApp.bitTorrentClient.contentManager_26  TotalBytesUploaded:vector  ETV
attr source ContentManager_TotalBytesUploaded
attr title "Total of Bytes Uploaded, vector"
attr unit B
1017	207896 2911 14037476 45787632 36028.335489873252 36078.128521894725 72 32768 2359296 86114304 1.3638668648448e+14
vector 1001  BasicTopology.peer[21].bitTorrentApp.bitTorrentClient.contentManager_26  TotalBytesUploaded:vector  ETV
attr source ContentManager_TotalBytesUploaded
attr title "Total of Bytes Uploaded, vector"
attr unit B
1001	188619 4865 14084827 77916614 36028.406541042067 36301.209450657067 120 32768 3932160 237895680 6.2622770659328e+14
vector 991  BasicTopology.peer[20].bitTorrentApp.bitTorrentClient.contentManager_26  PiecesDownloaded:vector  ETV
attr source ContentManager_PieceDownloaded
attr title "Pieces Downloaded, vector"
991	177533 408 15855923 70653108 36031.231994620014 36129.357153767632 12 0 11 66 506
vector 993  BasicTopology.peer[20].bitTorrentApp.bitTorrentClient.contentManager_26  TotalBytesUploaded:vector  ETV
attr source ContentManager_TotalBytesUploaded
attr title "Total of Bytes Uploaded, vector"
attr unit B
993	181738 2596 15890688 73631558 36031.293326235432 36136.853165849582 66 32768 2162688 72450048 1.052492473303e+14
vector 967  BasicTopology.peer[17].bitTorrentApp.bitTorrentClient.contentManager_26  PiecesDownloaded:vector  ETV
attr source ContentManager_PieceDownloaded
attr title "Pieces Downloaded, vector"
967	163918 409 19401417 78186442 36036.405401771858 36302.893427386447 12 0 11 66 506
vector 975  BasicTopology.peer[18].bitTorrentApp.bitTorrentClient.contentManager_26  PiecesDownloaded:vector  ETV
attr source ContentManager_PieceDownloaded
attr title "Pieces Downloaded, vector"
975	168798 407 23471167 69705150 36042.119684433603 36127.15951710354 12 0 11 66 506
vector 1025  BasicTopology.peer[24].bitTorrentApp.bitTorrentClient.contentManager_26  TotalBytesUploaded:vector  ETV
attr source ContentManager_TotalBytesUploaded
attr title "Total of Bytes Uploaded, vector"
attr unit B
1025	215114 1399 28180654 46889656 36049.027946251017 36079.848489891308 35 32768 1146880 20643840 16009490595840
vector 953  BasicTopology.peer[15].bitTorrentApp.bitTorrentClient.contentManager_26  TotalBytesUploaded:vector  ETV
attr source ContentManager_TotalBytesUploaded
attr title "Total of Bytes Uploaded, vector"
attr unit B
953	159407 309 33555606 33593019 36057.588729015926 36057.642834268461 8 32768 262144 1179648 219043332096
vector 945  BasicTopology.peer[14].bitTorrentApp.bitTorrentClient.contentManager_26  TotalBytesUploaded:vector  ETV
attr source ContentManager_TotalBytesUploaded
attr title "Total of Bytes Uploaded, vector"
attr unit B
945	154748 463 41698349 63329478 36071.269814975677 36111.466067757639 12 32768 393216 2555904 697932185600
vector 985  BasicTopology.peer[19].bitTorrentApp.bitTorrentClient.contentManager_26  TotalBytesUploaded:vector  ETV
attr source ContentManager_TotalBytesUploaded
attr title "Total of Bytes Uploaded, vector"
attr unit B
985	177225 308 77831876 77854979 36301.020324700708 36301.070712333457 8 32768 262144 1179648 219043332096
