file 220964 1593887683                                          
version 2
run Test-18-20200526-12:15:53-5326
attr configname Test
attr datetime 20200526-12:15:53
attr experiment "\"Simulation Test\""
attr inifile BasicConfig.ini
attr iterationvars ""
attr iterationvars2 $repetition=18
attr measurement "\"Peers: $peers, Rate: $rate\""
attr network BasicTopology
attr processid 5326
attr repetition 18
attr replication #18
attr resultdir results
attr runnumber 18
attr seedset 18
vector 3  BasicTopology.peer[1].bitTorrentApp.bitTorrentClient  DownloadComplete_Test:vector  ETV
attr source BitTorrentClient_DownloadComplete_Test
attr title "Descargas completas (prueba), vector"
3	20589 63 85 48277831 36001 36084.774292741074 2 36001 36084.774292741 72085.774292741 2598182936.7581
vector 5  BasicTopology.peer[2].bitTorrentApp.bitTorrentClient  DownloadComplete_Test:vector  ETV
attr source BitTorrentClient_DownloadComplete_Test
attr title "Descargas completas (prueba), vector"
5	20652 63 86 49134764 36001 36086.407837208643 2 36001 36086.407837209 72087.407837209 2598300831.5934
vector 7  BasicTopology.peer[3].bitTorrentApp.bitTorrentClient  DownloadComplete_Test:vector  ETV
attr source BitTorrentClient_DownloadComplete_Test
attr title "Descargas completas (prueba), vector"
7	20715 63 87 53294240 36001 36094.458226947045 2 36001 36094.458226947 72095.458226947 2598881915.6968
vector 9  BasicTopology.peer[4].bitTorrentApp.bitTorrentClient  DownloadComplete_Test:vector  ETV
attr source BitTorrentClient_DownloadComplete_Test
attr title "Descargas completas (prueba), vector"
9	20778 63 88 80338345 36001 36166.641635310859 2 36001 36166.641635311 72167.641635311 2604097968.177
vector 11  BasicTopology.peer[5].bitTorrentApp.bitTorrentClient  DownloadComplete_Test:vector  ETV
attr source BitTorrentClient_DownloadComplete_Test
attr title "Descargas completas (prueba), vector"
11	20841 65 89 76215259 36001 36144.661089564691 2 36001 36144.661089565 72145.661089565 2602508526.2795
vector 13  BasicTopology.peer[6].bitTorrentApp.bitTorrentClient  DownloadComplete_Test:vector  ETV
attr source BitTorrentClient_DownloadComplete_Test
attr title "Descargas completas (prueba), vector"
13	20906 65 90 81009856 36001 36170.595693229134 2 36001 36170.595693229 72171.595693229 2604383993.803
vector 15  BasicTopology.peer[7].bitTorrentApp.bitTorrentClient  DownloadComplete_Test:vector  ETV
attr source BitTorrentClient_DownloadComplete_Test
attr title "Descargas completas (prueba), vector"
15	20971 65 91 75708505 36001 36143.305341989275 2 36001 36143.305341989 72144.305341989 2602410522.0443
vector 17  BasicTopology.peer[8].bitTorrentApp.bitTorrentClient  DownloadComplete_Test:vector  ETV
attr source BitTorrentClient_DownloadComplete_Test
attr title "Descargas completas (prueba), vector"
17	21036 65 92 72887925 36001 36135.046234663831 2 36001 36135.046234664 72136.046234664 2601813567.3813
vector 19  BasicTopology.peer[9].bitTorrentApp.bitTorrentClient  DownloadComplete_Test:vector  ETV
attr source BitTorrentClient_DownloadComplete_Test
attr title "Descargas completas (prueba), vector"
19	21101 65 93 79714873 36001 36159.737571824739 2 36001 36159.737571825 72160.737571825 2603598622.2633
vector 21  BasicTopology.peer[10].bitTorrentApp.bitTorrentClient  DownloadComplete_Test:vector  ETV
attr source BitTorrentClient_DownloadComplete_Test
attr title "Descargas completas (prueba), vector"
21	21166 65 94 81914707 36001 36304.744940683015 2 36001 36304.744940683 72305.744940683 2614106506.208
vector 23  BasicTopology.peer[11].bitTorrentApp.bitTorrentClient  DownloadComplete_Test:vector  ETV
attr source BitTorrentClient_DownloadComplete_Test
attr title "Descargas completas (prueba), vector"
23	21231 65 95 62716221 36001 36113.479911046145 2 36001 36113.479911046 72114.479911046 2600255432.2855
vector 25  BasicTopology.peer[12].bitTorrentApp.bitTorrentClient  DownloadComplete_Test:vector  ETV
attr source BitTorrentClient_DownloadComplete_Test
attr title "Descargas completas (prueba), vector"
25	21296 65 96 73567915 36001 36136.722907045783 2 36001 36136.722907046 72137.722907046 2601934743.4606
vector 27  BasicTopology.peer[13].bitTorrentApp.bitTorrentClient  DownloadComplete_Test:vector  ETV
attr source BitTorrentClient_DownloadComplete_Test
attr title "Descargas completas (prueba), vector"
27	21361 64 97 81795052 36001 36302.484053240089 2 36001 36302.48405324 72303.48405324 2613942349.4357
vector 29  BasicTopology.peer[14].bitTorrentApp.bitTorrentClient  DownloadComplete_Test:vector  ETV
attr source BitTorrentClient_DownloadComplete_Test
attr title "Descargas completas (prueba), vector"
29	21425 65 98 77021616 36001 36147.390798263255 2 36001 36147.390798263 72148.390798263 2602705862.5223
vector 31  BasicTopology.peer[15].bitTorrentApp.bitTorrentClient  DownloadComplete_Test:vector  ETV
attr source BitTorrentClient_DownloadComplete_Test
attr title "Descargas completas (prueba), vector"
31	21490 64 99 75576776 36001 36142.43223973735 2 36001 36142.432239737 72143.432239737 2602347409.204
vector 33  BasicTopology.peer[16].bitTorrentApp.bitTorrentClient  DownloadComplete_Test:vector  ETV
attr source BitTorrentClient_DownloadComplete_Test
attr title "Descargas completas (prueba), vector"
33	21554 66 100 77569832 36001 36149.761499737198 2 36001 36149.761499737 72150.761499737 2602877257.4879
vector 35  BasicTopology.peer[17].bitTorrentApp.bitTorrentClient  DownloadComplete_Test:vector  ETV
attr source BitTorrentClient_DownloadComplete_Test
attr title "Descargas completas (prueba), vector"
35	21620 66 101 64120856 36001 36116.221014846042 2 36001 36116.221014846 72117.221014846 2600453421.3932
vector 37  BasicTopology.peer[18].bitTorrentApp.bitTorrentClient  DownloadComplete_Test:vector  ETV
attr source BitTorrentClient_DownloadComplete_Test
attr title "Descargas completas (prueba), vector"
37	21686 65 102 75028067 36001 36140.18315946595 2 36001 36140.183159466 72141.183159466 2602184839.7998
vector 39  BasicTopology.peer[19].bitTorrentApp.bitTorrentClient  DownloadComplete_Test:vector  ETV
attr source BitTorrentClient_DownloadComplete_Test
attr title "Descargas completas (prueba), vector"
39	21751 66 103 71266736 36001 36131.321651530578 2 36001 36131.321651531 72132.321651531 2601544405.2864
vector 41  BasicTopology.peer[20].bitTorrentApp.bitTorrentClient  DownloadComplete_Test:vector  ETV
attr source BitTorrentClient_DownloadComplete_Test
attr title "Descargas completas (prueba), vector"
41	21817 64 104 74820306 36001 36139.712660399978 2 36001 36139.7126604 72140.7126604 2602150832.1763
vector 43  BasicTopology.peer[21].bitTorrentApp.bitTorrentClient  DownloadComplete_Test:vector  ETV
attr source BitTorrentClient_DownloadComplete_Test
attr title "Descargas completas (prueba), vector"
43	21881 66 105 80491770 36001 36167.215289648167 2 36001 36167.215289648 72168.215289648 2604139462.8077
vector 45  BasicTopology.peer[22].bitTorrentApp.bitTorrentClient  DownloadComplete_Test:vector  ETV
attr source BitTorrentClient_DownloadComplete_Test
attr title "Descargas completas (prueba), vector"
45	21947 66 106 46321347 36001 36080.997606443692 2 36001 36080.997606444 72081.997606444 2597910389.2762
vector 47  BasicTopology.peer[23].bitTorrentApp.bitTorrentClient  DownloadComplete_Test:vector  ETV
attr source BitTorrentClient_DownloadComplete_Test
attr title "Descargas completas (prueba), vector"
47	22013 65 107 77922454 36001 36152.67170318837 2 36001 36152.671703188 72153.671703188 2603087672.2785
vector 49  BasicTopology.peer[24].bitTorrentApp.bitTorrentClient  DownloadComplete_Test:vector  ETV
attr source BitTorrentClient_DownloadComplete_Test
attr title "Descargas completas (prueba), vector"
49	22078 66 108 73175739 36001 36135.847976003296 2 36001 36135.847976003 72136.847976003 2601871509.9448
vector 833  BasicTopology.peer[0].bitTorrentApp.bitTorrentClient.contentManager_26  TotalBytesUploaded:vector  ETV
attr source ContentManager_TotalBytesUploaded
attr title "Total of Bytes Uploaded, vector"
attr unit B
833	22144 11121 270686 74192074 36001.546947053829 36138.379356288212 284 32768 9306112 1326120960 8.2418382300774e+15
vector 1008  BasicTopology.peer[22].bitTorrentApp.bitTorrentClient.contentManager_26  TotalBytesDownloaded:vector  ETV
attr source ContentManager_TotalBytesDownloaded
attr title "Total of Bytes Downloaded, vector"
attr unit B
1008	196696 3856 538175 46321347 36002.70811395881 36080.997606443692 96 32768 3145728 152567808 3.2162433099366e+14
vector 1007  BasicTopology.peer[22].bitTorrentApp.bitTorrentClient.contentManager_26  PiecesDownloaded:vector  ETV
attr source ContentManager_PieceDownloaded
attr title "Pieces Downloaded, vector"
1007	196280 416 728736 46321347 36003.266220174461 36080.997606443692 12 0 11 66 506
vector 1009  BasicTopology.peer[22].bitTorrentApp.bitTorrentClient.contentManager_26  TotalBytesUploaded:vector  ETV
attr source ContentManager_TotalBytesUploaded
attr title "Total of Bytes Uploaded, vector"
attr unit B
1009	200552 7107 746636 71265635 36003.316971353666 36131.319407535018 178 32768 5832704 522027008 2.0355879387791e+15
vector 968  BasicTopology.peer[17].bitTorrentApp.bitTorrentClient.contentManager_26  TotalBytesDownloaded:vector  ETV
attr source ContentManager_TotalBytesDownloaded
attr title "Total of Bytes Downloaded, vector"
attr unit B
968	156093 3824 859148 64120856 36003.608904660471 36116.221014846042 97 32768 3178496 155746304 3.3172716781568e+14
vector 888  BasicTopology.peer[7].bitTorrentApp.bitTorrentClient.contentManager_26  TotalBytesDownloaded:vector  ETV
attr source ContentManager_TotalBytesDownloaded
attr title "Total of Bytes Downloaded, vector"
attr unit B
888	87255 3977 1349418 76357892 36004.601235508213 36145.09390643005 101 32768 3309568 168787968 3.7425378649702e+14
vector 936  BasicTopology.peer[13].bitTorrentApp.bitTorrentClient.contentManager_26  TotalBytesDownloaded:vector  ETV
attr source ContentManager_TotalBytesDownloaded
attr title "Total of Bytes Downloaded, vector"
attr unit B
936	130527 3786 1452630 81795052 36004.777014073081 36302.484053240089 96 32768 3145728 152567808 3.2162433099366e+14
vector 960  BasicTopology.peer[16].bitTorrentApp.bitTorrentClient.contentManager_26  TotalBytesDownloaded:vector  ETV
attr source ContentManager_TotalBytesDownloaded
attr title "Total of Bytes Downloaded, vector"
attr unit B
960	147972 4419 1595560 77569832 36005.133979028649 36149.761499737198 112 32768 3670016 207355904 5.095978696704e+14
vector 967  BasicTopology.peer[17].bitTorrentApp.bitTorrentClient.contentManager_26  PiecesDownloaded:vector  ETV
attr source ContentManager_PieceDownloaded
attr title "Pieces Downloaded, vector"
967	155685 408 1771000 64120856 36005.574870803151 36116.221014846042 12 0 11 66 506
vector 969  BasicTopology.peer[17].bitTorrentApp.bitTorrentClient.contentManager_26  TotalBytesUploaded:vector  ETV
attr source ContentManager_TotalBytesUploaded
attr title "Total of Bytes Uploaded, vector"
attr unit B
969	159917 1832 1788372 5303255 36005.601902882202 36012.742318582865 48 32768 1572864 38535168 40827959115776
vector 840  BasicTopology.peer[1].bitTorrentApp.bitTorrentClient.contentManager_26  TotalBytesDownloaded:vector  ETV
attr source ContentManager_TotalBytesDownloaded
attr title "Total of Bytes Downloaded, vector"
attr unit B
840	33669 3744 1818844 48277831 36005.669786215285 36084.774292741074 96 32768 3145728 152567808 3.2162433099366e+14
vector 839  BasicTopology.peer[1].bitTorrentApp.bitTorrentClient.contentManager_26  PiecesDownloaded:vector  ETV
attr source ContentManager_PieceDownloaded
attr title "Pieces Downloaded, vector"
839	33265 404 1912216 48277831 36005.852919125029 36084.774292741074 12 0 11 66 506
vector 841  BasicTopology.peer[1].bitTorrentApp.bitTorrentClient.contentManager_26  TotalBytesUploaded:vector  ETV
attr source ContentManager_TotalBytesUploaded
attr title "Total of Bytes Uploaded, vector"
attr unit B
841	37413 10371 1986571 61729810 36005.976627090984 36111.407412783091 264 32768 8650752 1146224640 6.6229898942874e+15
vector 856  BasicTopology.peer[3].bitTorrentApp.bitTorrentClient.contentManager_26  TotalBytesDownloaded:vector  ETV
attr source ContentManager_TotalBytesDownloaded
attr title "Total of Bytes Downloaded, vector"
attr unit B
856	58030 3853 2044122 55039137 36006.104062536031 36097.831166090132 98 32768 3211264 158957568 3.4203938429338e+14
vector 1000  BasicTopology.peer[21].bitTorrentApp.bitTorrentClient.contentManager_26  TotalBytesDownloaded:vector  ETV
attr source ContentManager_TotalBytesDownloaded
attr title "Total of Bytes Downloaded, vector"
attr unit B
1000	184950 3871 2234292 80491770 36006.737328526001 36167.215289648167 96 32768 3145728 152567808 3.2162433099366e+14
vector 880  BasicTopology.peer[6].bitTorrentApp.bitTorrentClient.contentManager_26  TotalBytesDownloaded:vector  ETV
attr source ContentManager_TotalBytesDownloaded
attr title "Total of Bytes Downloaded, vector"
attr unit B
880	82197 4148 2282779 81403744 36006.861090005391 36172.41395848711 105 32768 3440640 182353920 4.2026791862272e+14
vector 864  BasicTopology.peer[4].bitTorrentApp.bitTorrentClient.contentManager_26  TotalBytesDownloaded:vector  ETV
attr source ContentManager_TotalBytesDownloaded
attr title "Total of Bytes Downloaded, vector"
attr unit B
864	69862 3777 2371663 80338345 36006.996315953304 36166.641635310859 96 32768 3145728 152567808 3.2162433099366e+14
vector 855  BasicTopology.peer[3].bitTorrentApp.bitTorrentClient.contentManager_26  PiecesDownloaded:vector  ETV
attr source ContentManager_PieceDownloaded
attr title "Pieces Downloaded, vector"
855	57623 407 2728385 53294240 36007.669918984539 36094.458226947045 12 0 11 66 506
vector 857  BasicTopology.peer[3].bitTorrentApp.bitTorrentClient.contentManager_26  TotalBytesUploaded:vector  ETV
attr source ContentManager_TotalBytesUploaded
attr title "Total of Bytes Uploaded, vector"
attr unit B
857	61883 7570 2754703 55401604 36007.716773433604 36098.537135458592 192 32768 6291456 607125504 2.5531003594342e+15
vector 887  BasicTopology.peer[7].bitTorrentApp.bitTorrentClient.contentManager_26  PiecesDownloaded:vector  ETV
attr source ContentManager_PieceDownloaded
attr title "Pieces Downloaded, vector"
887	86847 408 3150167 75708505 36008.808548835968 36143.305341989275 12 0 11 66 506
vector 889  BasicTopology.peer[7].bitTorrentApp.bitTorrentClient.contentManager_26  TotalBytesUploaded:vector  ETV
attr source ContentManager_TotalBytesUploaded
attr title "Total of Bytes Uploaded, vector"
attr unit B
889	91232 5032 3168078 40461948 36008.866929107438 36070.965294259647 128 32768 4194304 270532608 7.5941893740954e+14
vector 920  BasicTopology.peer[11].bitTorrentApp.bitTorrentClient.contentManager_26  TotalBytesDownloaded:vector  ETV
attr source ContentManager_TotalBytesDownloaded
attr title "Total of Bytes Downloaded, vector"
attr unit B
920	116953 3789 3237068 62716221 36009.042167316658 36113.479911046145 96 32768 3145728 152567808 3.2162433099366e+14
vector 904  BasicTopology.peer[9].bitTorrentApp.bitTorrentClient.contentManager_26  TotalBytesDownloaded:vector  ETV
attr source ContentManager_TotalBytesDownloaded
attr title "Total of Bytes Downloaded, vector"
attr unit B
904	101884 3792 3278806 79714873 36009.127350254022 36159.737571824739 96 32768 3145728 152567808 3.2162433099366e+14
vector 999  BasicTopology.peer[21].bitTorrentApp.bitTorrentClient.contentManager_26  PiecesDownloaded:vector  ETV
attr source ContentManager_PieceDownloaded
attr title "Pieces Downloaded, vector"
999	184541 409 3328416 80491770 36009.206542778624 36167.215289648167 12 0 11 66 506
vector 1001  BasicTopology.peer[21].bitTorrentApp.bitTorrentClient.contentManager_26  TotalBytesUploaded:vector  ETV
attr source ContentManager_TotalBytesUploaded
attr title "Total of Bytes Uploaded, vector"
attr unit B
1001	188821 7459 3351207 70435355 36009.234618108796 36129.694455038018 184 32768 6029312 557711360 2.247835558871e+15
vector 952  BasicTopology.peer[15].bitTorrentApp.bitTorrentClient.contentManager_26  TotalBytesDownloaded:vector  ETV
attr source ContentManager_TotalBytesDownloaded
attr title "Total of Bytes Downloaded, vector"
attr unit B
952	143778 3785 3618514 75576776 36009.799613804541 36142.43223973735 96 32768 3145728 152567808 3.2162433099366e+14
vector 944  BasicTopology.peer[14].bitTorrentApp.bitTorrentClient.contentManager_26  TotalBytesDownloaded:vector  ETV
attr source ContentManager_TotalBytesDownloaded
attr title "Total of Bytes Downloaded, vector"
attr unit B
944	135960 3779 3924343 77021616 36010.271452285197 36147.390798263255 96 32768 3145728 152567808 3.2162433099366e+14
vector 848  BasicTopology.peer[2].bitTorrentApp.bitTorrentClient.contentManager_26  TotalBytesDownloaded:vector  ETV
attr source ContentManager_TotalBytesDownloaded
attr title "Total of Bytes Downloaded, vector"
attr unit B
848	48192 3823 4042366 52813344 36010.475380050025 36093.514824260407 97 32768 3178496 155746304 3.3172716781568e+14
vector 903  BasicTopology.peer[9].bitTorrentApp.bitTorrentClient.contentManager_26  PiecesDownloaded:vector  ETV
attr source ContentManager_PieceDownloaded
attr title "Pieces Downloaded, vector"
903	101475 409 4114028 79714873 36010.592620583173 36159.737571824739 12 0 11 66 506
vector 912  BasicTopology.peer[10].bitTorrentApp.bitTorrentClient.contentManager_26  TotalBytesDownloaded:vector  ETV
attr source ContentManager_TotalBytesDownloaded
attr title "Total of Bytes Downloaded, vector"
attr unit B
912	106695 3781 4518736 81914707 36011.385173784321 36304.744940683015 96 32768 3145728 152567808 3.2162433099366e+14
vector 879  BasicTopology.peer[6].bitTorrentApp.bitTorrentClient.contentManager_26  PiecesDownloaded:vector  ETV
attr source ContentManager_PieceDownloaded
attr title "Pieces Downloaded, vector"
879	81788 409 4567687 81009856 36011.453292466779 36170.595693229134 12 0 11 66 506
vector 951  BasicTopology.peer[15].bitTorrentApp.bitTorrentClient.contentManager_26  PiecesDownloaded:vector  ETV
attr source ContentManager_PieceDownloaded
attr title "Pieces Downloaded, vector"
951	143371 407 5114392 75576776 36012.476704375635 36142.43223973735 12 0 11 66 506
vector 1016  BasicTopology.peer[23].bitTorrentApp.bitTorrentClient.contentManager_26  TotalBytesDownloaded:vector  ETV
attr source ContentManager_TotalBytesDownloaded
attr title "Total of Bytes Downloaded, vector"
attr unit B
1016	208078 3883 5373998 77922454 36012.850617994008 36152.67170318837 96 32768 3145728 152567808 3.2162433099366e+14
vector 905  BasicTopology.peer[9].bitTorrentApp.bitTorrentClient.contentManager_26  TotalBytesUploaded:vector  ETV
attr source ContentManager_TotalBytesUploaded
attr title "Total of Bytes Uploaded, vector"
attr unit B
905	105676 612 5626353 40684042 36013.243619025093 36071.340589730989 16 32768 524288 4456448 1606317768704
vector 1024  BasicTopology.peer[24].bitTorrentApp.bitTorrentClient.contentManager_26  TotalBytesDownloaded:vector  ETV
attr source ContentManager_TotalBytesDownloaded
attr title "Total of Bytes Downloaded, vector"
attr unit B
1024	216517 4210 5726957 73175739 36013.395325651474 36135.847976003296 104 32768 3407872 178913280 4.0842991501312e+14
vector 911  BasicTopology.peer[10].bitTorrentApp.bitTorrentClient.contentManager_26  PiecesDownloaded:vector  ETV
attr source ContentManager_PieceDownloaded
attr title "Pieces Downloaded, vector"
911	106288 407 6055503 81914707 36013.911298283983 36304.744940683015 12 0 11 66 506
vector 992  BasicTopology.peer[20].bitTorrentApp.bitTorrentClient.contentManager_26  TotalBytesDownloaded:vector  ETV
attr source ContentManager_TotalBytesDownloaded
attr title "Total of Bytes Downloaded, vector"
attr unit B
992	172383 3768 6336032 74820306 36014.375729476205 36139.712660399978 96 32768 3145728 152567808 3.2162433099366e+14
vector 896  BasicTopology.peer[8].bitTorrentApp.bitTorrentClient.contentManager_26  TotalBytesDownloaded:vector  ETV
attr source ContentManager_TotalBytesDownloaded
attr title "Total of Bytes Downloaded, vector"
attr unit B
896	96674 3792 6665514 72887925 36015.0247170355 36135.046234663831 96 32768 3145728 152567808 3.2162433099366e+14
vector 991  BasicTopology.peer[20].bitTorrentApp.bitTorrentClient.contentManager_26  PiecesDownloaded:vector  ETV
attr source ContentManager_PieceDownloaded
attr title "Pieces Downloaded, vector"
991	171976 407 7200625 74820306 36015.854069212604 36139.712660399978 12 0 11 66 506
vector 993  BasicTopology.peer[20].bitTorrentApp.bitTorrentClient.contentManager_26  TotalBytesUploaded:vector  ETV
attr source ContentManager_TotalBytesUploaded
attr title "Total of Bytes Uploaded, vector"
attr unit B
993	176151 8390 7226994 77137300 36015.886704554358 36148.113632651551 212 32768 6946816 739835904 3.4344169111552e+15
vector 943  BasicTopology.peer[14].bitTorrentApp.bitTorrentClient.contentManager_26  PiecesDownloaded:vector  ETV
attr source ContentManager_PieceDownloaded
attr title "Pieces Downloaded, vector"
943	135553 407 7253358 77021616 36015.932777514874 36147.390798263255 12 0 11 66 506
vector 847  BasicTopology.peer[2].bitTorrentApp.bitTorrentClient.contentManager_26  PiecesDownloaded:vector  ETV
attr source ContentManager_PieceDownloaded
attr title "Pieces Downloaded, vector"
847	47784 408 8011315 49134764 36017.218256074394 36086.407837208643 12 0 11 66 506
vector 849  BasicTopology.peer[2].bitTorrentApp.bitTorrentClient.contentManager_26  TotalBytesUploaded:vector  ETV
attr source ContentManager_TotalBytesUploaded
attr title "Total of Bytes Uploaded, vector"
attr unit B
849	52015 5608 8034327 81737266 36017.254282376589 36301.020751244012 142 32768 4653056 332693504 1.0356615702118e+15
vector 976  BasicTopology.peer[18].bitTorrentApp.bitTorrentClient.contentManager_26  TotalBytesDownloaded:vector  ETV
attr source ContentManager_TotalBytesDownloaded
attr title "Total of Bytes Downloaded, vector"
attr unit B
976	162157 3992 8391203 75028067 36018.060508428741 36140.18315946595 101 32768 3309568 168787968 3.7425378649702e+14
vector 945  BasicTopology.peer[14].bitTorrentApp.bitTorrentClient.contentManager_26  TotalBytesUploaded:vector  ETV
attr source ContentManager_TotalBytesUploaded
attr title "Total of Bytes Uploaded, vector"
attr unit B
945	139739 3632 8761948 37240043 36018.615519310801 36065.766874882888 92 32768 3014656 140181504 2.8326383058944e+14
vector 984  BasicTopology.peer[19].bitTorrentApp.bitTorrentClient.contentManager_26  TotalBytesDownloaded:vector  ETV
attr source ContentManager_TotalBytesDownloaded
attr title "Total of Bytes Downloaded, vector"
attr unit B
984	167180 4796 9025784 71266736 36019.093992515538 36131.321651530578 121 32768 3964928 241860608 6.4194836063846e+14
vector 1023  BasicTopology.peer[24].bitTorrentApp.bitTorrentClient.contentManager_26  PiecesDownloaded:vector  ETV
attr source ContentManager_PieceDownloaded
attr title "Pieces Downloaded, vector"
1023	216097 420 9394940 73175739 36019.65801959921 36135.847976003296 12 0 11 66 506
vector 959  BasicTopology.peer[16].bitTorrentApp.bitTorrentClient.contentManager_26  PiecesDownloaded:vector  ETV
attr source ContentManager_PieceDownloaded
attr title "Pieces Downloaded, vector"
959	147563 409 9403978 77569832 36019.672161095881 36149.761499737198 12 0 11 66 506
vector 961  BasicTopology.peer[16].bitTorrentApp.bitTorrentClient.contentManager_26  TotalBytesUploaded:vector  ETV
attr source ContentManager_TotalBytesUploaded
attr title "Total of Bytes Uploaded, vector"
attr unit B
961	152391 3294 9418774 77811213 36019.689720927227 36151.349603537998 84 32768 2752512 116981760 2.1594021822464e+14
vector 1015  BasicTopology.peer[23].bitTorrentApp.bitTorrentClient.contentManager_26  PiecesDownloaded:vector  ETV
attr source ContentManager_PieceDownloaded
attr title "Pieces Downloaded, vector"
1015	207659 419 9743637 77922454 36020.170433681412 36152.67170318837 12 0 11 66 506
vector 975  BasicTopology.peer[18].bitTorrentApp.bitTorrentClient.contentManager_26  PiecesDownloaded:vector  ETV
attr source ContentManager_PieceDownloaded
attr title "Pieces Downloaded, vector"
975	161749 408 9840081 75028067 36020.407633991067 36140.18315946595 12 0 11 66 506
vector 863  BasicTopology.peer[4].bitTorrentApp.bitTorrentClient.contentManager_26  PiecesDownloaded:vector  ETV
attr source ContentManager_PieceDownloaded
attr title "Pieces Downloaded, vector"
863	69453 409 9854157 80338345 36020.428598658646 36166.641635310859 12 0 11 66 506
vector 919  BasicTopology.peer[11].bitTorrentApp.bitTorrentClient.contentManager_26  PiecesDownloaded:vector  ETV
attr source ContentManager_PieceDownloaded
attr title "Pieces Downloaded, vector"
919	116545 408 10274962 62716221 36021.227899750414 36113.479911046145 12 0 11 66 506
vector 983  BasicTopology.peer[19].bitTorrentApp.bitTorrentClient.contentManager_26  PiecesDownloaded:vector  ETV
attr source ContentManager_PieceDownloaded
attr title "Pieces Downloaded, vector"
983	166770 410 10491143 71266736 36021.550326517859 36131.321651530578 12 0 11 66 506
vector 865  BasicTopology.peer[4].bitTorrentApp.bitTorrentClient.contentManager_26  TotalBytesUploaded:vector  ETV
attr source ContentManager_TotalBytesUploaded
attr title "Total of Bytes Uploaded, vector"
attr unit B
865	73639 3475 11146827 81748226 36022.675641129767 36301.051190924979 88 32768 2883584 128319488 2.4808160598426e+14
vector 872  BasicTopology.peer[5].bitTorrentApp.bitTorrentClient.contentManager_26  TotalBytesDownloaded:vector  ETV
attr source ContentManager_TotalBytesDownloaded
attr title "Total of Bytes Downloaded, vector"
attr unit B
872	77523 3801 11341422 76215259 36023.01650747979 36144.661089564691 96 32768 3145728 152567808 3.2162433099366e+14
vector 895  BasicTopology.peer[8].bitTorrentApp.bitTorrentClient.contentManager_26  PiecesDownloaded:vector  ETV
attr source ContentManager_PieceDownloaded
attr title "Pieces Downloaded, vector"
895	96264 410 11675071 72887925 36023.475116060644 36135.046234663831 12 0 11 66 506
vector 935  BasicTopology.peer[13].bitTorrentApp.bitTorrentClient.contentManager_26  PiecesDownloaded:vector  ETV
attr source ContentManager_PieceDownloaded
attr title "Pieces Downloaded, vector"
935	130121 406 12242351 81795052 36024.474811766164 36302.484053240089 12 0 11 66 506
vector 928  BasicTopology.peer[12].bitTorrentApp.bitTorrentClient.contentManager_26  TotalBytesDownloaded:vector  ETV
attr source ContentManager_TotalBytesDownloaded
attr title "Total of Bytes Downloaded, vector"
attr unit B
928	125743 3798 12757953 73567915 36025.387642524594 36136.722907045783 96 32768 3145728 152567808 3.2162433099366e+14
vector 921  BasicTopology.peer[11].bitTorrentApp.bitTorrentClient.contentManager_26  TotalBytesUploaded:vector  ETV
attr source ContentManager_TotalBytesUploaded
attr title "Total of Bytes Uploaded, vector"
attr unit B
921	120742 4591 14194264 66470748 36027.84296628337 36121.182740924437 116 32768 3801088 222363648 5.659113333719e+14
vector 1017  BasicTopology.peer[23].bitTorrentApp.bitTorrentClient.contentManager_26  TotalBytesUploaded:vector  ETV
attr source ContentManager_TotalBytesUploaded
attr title "Total of Bytes Uploaded, vector"
attr unit B
1017	211961 4136 18064949 75309516 36034.469153699177 36141.079686662138 102 32768 3342336 172130304 3.8542499643392e+14
vector 913  BasicTopology.peer[10].bitTorrentApp.bitTorrentClient.contentManager_26  TotalBytesUploaded:vector  ETV
attr source ContentManager_TotalBytesUploaded
attr title "Total of Bytes Uploaded, vector"
attr unit B
913	110476 6069 19965063 80012467 36037.666757508039 36165.050269382826 153 32768 5013504 386039808 1.2944913318543e+15
vector 871  BasicTopology.peer[5].bitTorrentApp.bitTorrentClient.contentManager_26  PiecesDownloaded:vector  ETV
attr source ContentManager_PieceDownloaded
attr title "Pieces Downloaded, vector"
871	77114 409 20457042 76215259 36038.512563473613 36144.661089564691 12 0 11 66 506
vector 1025  BasicTopology.peer[24].bitTorrentApp.bitTorrentClient.contentManager_26  TotalBytesUploaded:vector  ETV
attr source ContentManager_TotalBytesUploaded
attr title "Total of Bytes Uploaded, vector"
attr unit B
1025	220727 237 21159192 21189530 36039.827825916046 36039.883872095559 6 32768 196608 688128 97710505984
vector 937  BasicTopology.peer[13].bitTorrentApp.bitTorrentClient.contentManager_26  TotalBytesUploaded:vector  ETV
attr source ContentManager_TotalBytesUploaded
attr title "Total of Bytes Uploaded, vector"
attr unit B
937	134313 1240 23967238 25427025 36044.138390074539 36046.524961822521 32 32768 1048576 17301504 12283606466560
vector 897  BasicTopology.peer[8].bitTorrentApp.bitTorrentClient.contentManager_26  TotalBytesUploaded:vector  ETV
attr source ContentManager_TotalBytesUploaded
attr title "Total of Bytes Uploaded, vector"
attr unit B
897	100466 1009 24063877 70781209 36044.26194966638 36130.380661113488 26 32768 851968 11501568 6658273050624
vector 927  BasicTopology.peer[12].bitTorrentApp.bitTorrentClient.contentManager_26  PiecesDownloaded:vector  ETV
attr source ContentManager_PieceDownloaded
attr title "Pieces Downloaded, vector"
927	125333 410 26204479 73567915 36047.678203320827 36136.722907045783 12 0 11 66 506
vector 881  BasicTopology.peer[6].bitTorrentApp.bitTorrentClient.contentManager_26  TotalBytesUploaded:vector  ETV
attr source ContentManager_TotalBytesUploaded
attr title "Total of Bytes Uploaded, vector"
attr unit B
881	86345 502 35621663 80361547 36062.925947526921 36166.885259492635 13 32768 425984 2981888 879394553856
vector 873  BasicTopology.peer[5].bitTorrentApp.bitTorrentClient.contentManager_26  TotalBytesUploaded:vector  ETV
attr source ContentManager_TotalBytesUploaded
attr title "Total of Bytes Uploaded, vector"
attr unit B
873	81324 464 37745239 48597447 36066.657958083433 36085.403177727363 12 32768 393216 2555904 697932185600
vector 977  BasicTopology.peer[18].bitTorrentApp.bitTorrentClient.contentManager_26  TotalBytesUploaded:vector  ETV
attr source ContentManager_TotalBytesUploaded
attr title "Total of Bytes Uploaded, vector"
attr unit B