file 464222 1593887685                                          
version 2
run Test-13-20200525-12:23:40-6702
attr configname Test
attr datetime 20200525-12:23:40
attr experiment "\"Simulation Test\""
attr inifile BasicConfig.ini
attr iterationvars ""
attr iterationvars2 $repetition=13
attr measurement "\"Peers: $peers, Rate: $rate\""
attr network BasicTopology
attr processid 6702
attr repetition 13
attr replication #13
attr resultdir results
attr runnumber 13
attr seedset 13
vector 3  BasicTopology.peer[1].bitTorrentApp.bitTorrentClient  DownloadComplete_Test:vector  ETV
attr source BitTorrentClient_DownloadComplete_Test
attr title "Descargas completas (prueba), vector"
3	41330 65 135 175218017 36001 36155.458217699294 2 36001 36155.458217699 72156.458217699 2603289159.9318
vector 5  BasicTopology.peer[2].bitTorrentApp.bitTorrentClient  DownloadComplete_Test:vector  ETV
attr source BitTorrentClient_DownloadComplete_Test
attr title "Descargas completas (prueba), vector"
5	41395 64 136 219949669 36001 36214.79041580524 2 36001 36214.790415805 72215.790415805 2607583045.8607
vector 7  BasicTopology.peer[3].bitTorrentApp.bitTorrentClient  DownloadComplete_Test:vector  ETV
attr source BitTorrentClient_DownloadComplete_Test
attr title "Descargas completas (prueba), vector"
7	41459 65 137 196178263 36001 36179.181917501972 2 36001 36179.181917502 72180.181917502 2605005205.2197
vector 9  BasicTopology.peer[4].bitTorrentApp.bitTorrentClient  DownloadComplete_Test:vector  ETV
attr source BitTorrentClient_DownloadComplete_Test
attr title "Descargas completas (prueba), vector"
9	41524 65 138 183901970 36001 36164.665420373773 2 36001 36164.665420374 72165.665420374 2603955025.9676
vector 11  BasicTopology.peer[5].bitTorrentApp.bitTorrentClient  DownloadComplete_Test:vector  ETV
attr source BitTorrentClient_DownloadComplete_Test
attr title "Descargas completas (prueba), vector"
11	41589 67 139 209181184 36001 36196.939482862964 2 36001 36196.939482863 72197.939482863 2606290428.926
vector 13  BasicTopology.peer[6].bitTorrentApp.bitTorrentClient  DownloadComplete_Test:vector  ETV
attr source BitTorrentClient_DownloadComplete_Test
attr title "Descargas completas (prueba), vector"
13	41656 67 140 202504430 36001 36187.297087901524 2 36001 36187.297087902 72188.297087902 2605592471.5281
vector 15  BasicTopology.peer[7].bitTorrentApp.bitTorrentClient  DownloadComplete_Test:vector  ETV
attr source BitTorrentClient_DownloadComplete_Test
attr title "Descargas completas (prueba), vector"
15	41723 67 141 216773191 36001 36209.581720798272 2 36001 36209.581720798 72210.581720798 2607205809.3951
vector 17  BasicTopology.peer[8].bitTorrentApp.bitTorrentClient  DownloadComplete_Test:vector  ETV
attr source BitTorrentClient_DownloadComplete_Test
attr title "Descargas completas (prueba), vector"
17	41790 66 142 221249060 36001 36216.89704374258 2 36001 36216.897043743 72217.897043743 2607735632.4771
vector 19  BasicTopology.peer[9].bitTorrentApp.bitTorrentClient  DownloadComplete_Test:vector  ETV
attr source BitTorrentClient_DownloadComplete_Test
attr title "Descargas completas (prueba), vector"
19	41856 67 143 231438943 36001 36297.182714362769 2 36001 36297.182714363 72298.182714363 2613557473.9999
vector 21  BasicTopology.peer[10].bitTorrentApp.bitTorrentClient  DownloadComplete_Test:vector  ETV
attr source BitTorrentClient_DownloadComplete_Test
attr title "Descargas completas (prueba), vector"
21	41923 66 144 112987402 36001 36098.51561965575 2 36001 36098.515619656 72099.515619656 2599174830.9425
vector 23  BasicTopology.peer[11].bitTorrentApp.bitTorrentClient  DownloadComplete_Test:vector  ETV
attr source BitTorrentClient_DownloadComplete_Test
attr title "Descargas completas (prueba), vector"
23	41989 67 145 162399826 36001 36142.540355744513 2 36001 36142.540355745 72143.540355745 2602355224.3667
vector 25  BasicTopology.peer[12].bitTorrentApp.bitTorrentClient  DownloadComplete_Test:vector  ETV
attr source BitTorrentClient_DownloadComplete_Test
attr title "Descargas completas (prueba), vector"
25	42056 67 146 221028574 36001 36216.539109888967 2 36001 36216.539109889 72217.539109889 2607709706.0981
vector 27  BasicTopology.peer[13].bitTorrentApp.bitTorrentClient  DownloadComplete_Test:vector  ETV
attr source BitTorrentClient_DownloadComplete_Test
attr title "Descargas completas (prueba), vector"
27	42123 67 147 203690591 36001 36188.859152463939 2 36001 36188.859152464 72189.859152464 2605705527.7569
vector 29  BasicTopology.peer[14].bitTorrentApp.bitTorrentClient  DownloadComplete_Test:vector  ETV
attr source BitTorrentClient_DownloadComplete_Test
attr title "Descargas completas (prueba), vector"
29	42190 67 148 231265738 36001 36296.520839672552 2 36001 36296.520839673 72297.520839673 2613509426.0648
vector 31  BasicTopology.peer[15].bitTorrentApp.bitTorrentClient  DownloadComplete_Test:vector  ETV
attr source BitTorrentClient_DownloadComplete_Test
attr title "Descargas completas (prueba), vector"
31	42257 66 149 207178421 36001 36193.74787880691 2 36001 36193.747878807 72194.747878807 2606059386.5146
vector 33  BasicTopology.peer[16].bitTorrentApp.bitTorrentClient  DownloadComplete_Test:vector  ETV
attr source BitTorrentClient_DownloadComplete_Test
attr title "Descargas completas (prueba), vector"
33	42323 67 150 204960981 36001 36190.710511227593 2 36001 36190.710511228 72191.710511228 2605839528.3075
vector 35  BasicTopology.peer[17].bitTorrentApp.bitTorrentClient  DownloadComplete_Test:vector  ETV
attr source BitTorrentClient_DownloadComplete_Test
attr title "Descargas completas (prueba), vector"
35	42390 67 151 185459956 36001 36166.281214436223 2 36001 36166.281214436 72167.281214436 2604071897.8817
vector 37  BasicTopology.peer[18].bitTorrentApp.bitTorrentClient  DownloadComplete_Test:vector  ETV
attr source BitTorrentClient_DownloadComplete_Test
attr title "Descargas completas (prueba), vector"
37	42457 67 152 219594285 36001 36214.203579956839 2 36001 36214.203579957 72215.203579957 2607540541.9306
vector 39  BasicTopology.peer[19].bitTorrentApp.bitTorrentClient  DownloadComplete_Test:vector  ETV
attr source BitTorrentClient_DownloadComplete_Test
attr title "Descargas completas (prueba), vector"
39	42524 66 153 222957007 36001 36220.444769680057 2 36001 36220.44476968 72221.44476968 2607992620.3134
vector 41  BasicTopology.peer[20].bitTorrentApp.bitTorrentClient  DownloadComplete_Test:vector  ETV
attr source BitTorrentClient_DownloadComplete_Test
attr title "Descargas completas (prueba), vector"
41	42590 66 154 57396673 36001 36055.544726737969 2 36001 36055.544726738 72056.544726738 2596074306.5418
vector 43  BasicTopology.peer[21].bitTorrentApp.bitTorrentClient  DownloadComplete_Test:vector  ETV
attr source BitTorrentClient_DownloadComplete_Test
attr title "Descargas completas (prueba), vector"
43	42656 67 155 224510773 36001 36223.165649971627 2 36001 36223.165649972 72224.165649972 2608189730.7053
vector 45  BasicTopology.peer[22].bitTorrentApp.bitTorrentClient  DownloadComplete_Test:vector  ETV
attr source BitTorrentClient_DownloadComplete_Test
attr title "Descargas completas (prueba), vector"
45	42723 67 156 218185856 36001 36211.897839836264 2 36001 36211.897839836 72212.897839836 2607373546.1627
vector 47  BasicTopology.peer[23].bitTorrentApp.bitTorrentClient  DownloadComplete_Test:vector  ETV
attr source BitTorrentClient_DownloadComplete_Test
attr title "Descargas completas (prueba), vector"
47	42790 66 157 209171510 36001 36196.92921709766 2 36001 36196.929217098 72197.929217098 2606289685.7476
vector 49  BasicTopology.peer[24].bitTorrentApp.bitTorrentClient  DownloadComplete_Test:vector  ETV
attr source BitTorrentClient_DownloadComplete_Test
attr title "Descargas completas (prueba), vector"
49	42856 67 158 212259849 36001 36202.503786954975 2 36001 36202.503786955 72203.503786955 2606693281.4445
vector 51  BasicTopology.peer[25].bitTorrentApp.bitTorrentClient  DownloadComplete_Test:vector  ETV
attr source BitTorrentClient_DownloadComplete_Test
attr title "Descargas completas (prueba), vector"
51	42923 65 159 225835265 36001 36227.40771878994 2 36001 36227.40771879 72228.40771879 2608497071.0234
vector 53  BasicTopology.peer[26].bitTorrentApp.bitTorrentClient  DownloadComplete_Test:vector  ETV
attr source BitTorrentClient_DownloadComplete_Test
attr title "Descargas completas (prueba), vector"
53	42988 67 160 214391368 36001 36206.104011717478 2 36001 36206.104011717 72207.104011717 2606953968.7073
vector 55  BasicTopology.peer[27].bitTorrentApp.bitTorrentClient  DownloadComplete_Test:vector  ETV
attr source BitTorrentClient_DownloadComplete_Test
attr title "Descargas completas (prueba), vector"
55	43055 67 161 219203025 36001 36213.578743521682 2 36001 36213.578743522 72214.578743522 2607495286.4133
vector 57  BasicTopology.peer[28].bitTorrentApp.bitTorrentClient  DownloadComplete_Test:vector  ETV
attr source BitTorrentClient_DownloadComplete_Test
attr title "Descargas completas (prueba), vector"
57	43122 67 162 208446222 36001 36195.823539840964 2 36001 36195.823539841 72196.823539841 2606209642.7273
vector 59  BasicTopology.peer[29].bitTorrentApp.bitTorrentClient  DownloadComplete_Test:vector  ETV
attr source BitTorrentClient_DownloadComplete_Test
attr title "Descargas completas (prueba), vector"
59	43189 67 163 230596498 36001 36294.541407359193 2 36001 36294.541407359 72295.541407359 2613365736.9705
vector 61  BasicTopology.peer[30].bitTorrentApp.bitTorrentClient  DownloadComplete_Test:vector  ETV
attr source BitTorrentClient_DownloadComplete_Test
attr title "Descargas completas (prueba), vector"
61	43256 66 164 167017864 36001 36147.28349536547 2 36001 36147.283495365 72148.283495365 2602698105.0943
vector 63  BasicTopology.peer[31].bitTorrentApp.bitTorrentClient  DownloadComplete_Test:vector  ETV
attr source BitTorrentClient_DownloadComplete_Test
attr title "Descargas completas (prueba), vector"
63	43322 67 165 163176943 36001 36143.295336026639 2 36001 36143.295336027 72144.295336027 2602409798.7473
vector 65  BasicTopology.peer[32].bitTorrentApp.bitTorrentClient  DownloadComplete_Test:vector  ETV
attr source BitTorrentClient_DownloadComplete_Test
attr title "Descargas completas (prueba), vector"
65	43389 67 166 196702973 36001 36179.856764366756 2 36001 36179.856764367 72180.856764367 2605054036.4901
vector 67  BasicTopology.peer[33].bitTorrentApp.bitTorrentClient  DownloadComplete_Test:vector  ETV
attr source BitTorrentClient_DownloadComplete_Test
attr title "Descargas completas (prueba), vector"
67	43456 67 167 208653870 36001 36196.153896724778 2 36001 36196.153896725 72197.153896725 2606233557.9154
vector 69  BasicTopology.peer[34].bitTorrentApp.bitTorrentClient  DownloadComplete_Test:vector  ETV
attr source BitTorrentClient_DownloadComplete_Test
attr title "Descargas completas (prueba), vector"
69	43523 67 168 198999879 36001 36182.515919374879 2 36001 36182.515919375 72183.515919375 2605246459.2558
vector 71  BasicTopology.peer[35].bitTorrentApp.bitTorrentClient  DownloadComplete_Test:vector  ETV
attr source BitTorrentClient_DownloadComplete_Test
attr title "Descargas completas (prueba), vector"
71	43590 67 169 221445969 36001 36217.743167994864 2 36001 36217.743167995 72218.743167995 2607796921.1828
vector 73  BasicTopology.peer[36].bitTorrentApp.bitTorrentClient  DownloadComplete_Test:vector  ETV
attr source BitTorrentClient_DownloadComplete_Test
attr title "Descargas completas (prueba), vector"
73	43657 67 170 222686377 36001 36219.773301768561 2 36001 36219.773301769 72220.773301769 2607943979.0315
vector 75  BasicTopology.peer[37].bitTorrentApp.bitTorrentClient  DownloadComplete_Test:vector  ETV
attr source BitTorrentClient_DownloadComplete_Test
attr title "Descargas completas (prueba), vector"
75	43724 66 171 195880037 36001 36178.87639818744 2 36001 36178.876398187 72179.876398187 2604983098.4353
vector 77  BasicTopology.peer[38].bitTorrentApp.bitTorrentClient  DownloadComplete_Test:vector  ETV
attr source BitTorrentClient_DownloadComplete_Test
attr title "Descargas completas (prueba), vector"
77	43790 67 172 224776897 36001 36224.055654185068 2 36001 36224.055654185 72225.055654185 2608254209.0375
vector 79  BasicTopology.peer[39].bitTorrentApp.bitTorrentClient  DownloadComplete_Test:vector  ETV
attr source BitTorrentClient_DownloadComplete_Test
attr title "Descargas completas (prueba), vector"
79	43857 67 173 186535107 36001 36167.494186548243 2 36001 36167.494186548 72168.494186548 2604159636.734
vector 81  BasicTopology.peer[40].bitTorrentApp.bitTorrentClient  DownloadComplete_Test:vector  ETV
attr source BitTorrentClient_DownloadComplete_Test
attr title "Descargas completas (prueba), vector"
81	43924 67 174 226618504 36001 36229.046266019423 2 36001 36229.046266019 72230.046266019 2608615794.3453
vector 83  BasicTopology.peer[41].bitTorrentApp.bitTorrentClient  DownloadComplete_Test:vector  ETV
attr source BitTorrentClient_DownloadComplete_Test
attr title "Descargas completas (prueba), vector"
83	43991 66 175 65605532 36001 36062.278098051942 2 36001 36062.278098052 72063.278098052 2596559902.6212
vector 85  BasicTopology.peer[42].bitTorrentApp.bitTorrentClient  DownloadComplete_Test:vector  ETV
attr source BitTorrentClient_DownloadComplete_Test
attr title "Descargas completas (prueba), vector"
85	44057 67 176 219917478 36001 36214.702706397631 2 36001 36214.702706398 72215.702706398 2607576693.1128
vector 87  BasicTopology.peer[43].bitTorrentApp.bitTorrentClient  DownloadComplete_Test:vector  ETV
attr source BitTorrentClient_DownloadComplete_Test
attr title "Descargas completas (prueba), vector"
87	44124 67 177 187319917 36001 36168.447465477672 2 36001 36168.447465478 72169.447465478 2604228593.063
vector 89  BasicTopology.peer[44].bitTorrentApp.bitTorrentClient  DownloadComplete_Test:vector  ETV
attr source BitTorrentClient_DownloadComplete_Test
attr title "Descargas completas (prueba), vector"
89	44191 67 178 188869017 36001 36170.277562883716 2 36001 36170.277562884 72171.277562884 2604360979.9761
vector 91  BasicTopology.peer[45].bitTorrentApp.bitTorrentClient  DownloadComplete_Test:vector  ETV
attr source BitTorrentClient_DownloadComplete_Test
attr title "Descargas completas (prueba), vector"
91	44258 67 179 226903513 36001 36230.234734576639 2 36001 36230.234734577 72231.234734577 2608701909.9226
vector 93  BasicTopology.peer[46].bitTorrentApp.bitTorrentClient  DownloadComplete_Test:vector  ETV
attr source BitTorrentClient_DownloadComplete_Test
attr title "Descargas completas (prueba), vector"
93	44325 67 180 206564789 36001 36192.848279223551 2 36001 36192.848279224 72193.848279224 2605994267.5629
vector 95  BasicTopology.peer[47].bitTorrentApp.bitTorrentClient  DownloadComplete_Test:vector  ETV
attr source BitTorrentClient_DownloadComplete_Test
attr title "Descargas completas (prueba), vector"
95	44392 66 181 192948931 36001 36175.22253994658 2 36001 36175.222539947 72176.222539947 2604718726.8147
vector 97  BasicTopology.peer[48].bitTorrentApp.bitTorrentClient  DownloadComplete_Test:vector  ETV
attr source BitTorrentClient_DownloadComplete_Test
attr title "Descargas completas (prueba), vector"
97	44458 67 182 216548938 36001 36209.265667505789 2 36001 36209.265667506 72210.265667506 2607182921.18
vector 99  BasicTopology.peer[49].bitTorrentApp.bitTorrentClient  DownloadComplete_Test:vector  ETV
attr source BitTorrentClient_DownloadComplete_Test
attr title "Descargas completas (prueba), vector"
99	44525 66 183 204242492 36001 36189.726222779589 2 36001 36189.72622278 72190.72622278 2605768285.0798
vector 1633  BasicTopology.peer[0].bitTorrentApp.bitTorrentClient.contentManager_51  TotalBytesUploaded:vector  ETV
attr source ContentManager_TotalBytesUploaded
attr title "Total of Bytes Uploaded, vector"
attr unit B
1633	44591 12501 785493 199398174 36001.594193247811 36183.014996740451 309 32768 10125312 1569423360 1.0611076408279e+16
vector 1792  BasicTopology.peer[20].bitTorrentApp.bitTorrentClient.contentManager_51  TotalBytesDownloaded:vector  ETV
attr source ContentManager_TotalBytesDownloaded
attr title "Total of Bytes Downloaded, vector"
attr unit B
1792	222417 3865 1670889 57396673 36002.928028476167 36055.544726737969 96 32768 3145728 152567808 3.2162433099366e+14
vector 1960  BasicTopology.peer[41].bitTorrentApp.bitTorrentClient.contentManager_51  TotalBytesDownloaded:vector  ETV
attr source ContentManager_TotalBytesDownloaded
attr title "Total of Bytes Downloaded, vector"
attr unit B
1960	388639 4207 1776827 65605532 36003.144259276139 36062.278098051942 104 32768 3407872 178913280 4.0842991501312e+14
vector 1640  BasicTopology.peer[1].bitTorrentApp.bitTorrentClient.contentManager_51  TotalBytesDownloaded:vector  ETV
attr source ContentManager_TotalBytesDownloaded
attr title "Total of Bytes Downloaded, vector"
attr unit B
1640	57510 3871 1855451 175218017 36003.9542587472 36155.458217699294 96 32768 3145728 152567808 3.2162433099366e+14
vector 1928  BasicTopology.peer[37].bitTorrentApp.bitTorrentClient.contentManager_51  TotalBytesDownloaded:vector  ETV
attr source ContentManager_TotalBytesDownloaded
attr title "Total of Bytes Downloaded, vector"
attr unit B
1928	356412 3928 2378346 195880037 36004.281835919071 36178.87639818744 96 32768 3145728 152567808 3.2162433099366e+14
vector 1959  BasicTopology.peer[41].bitTorrentApp.bitTorrentClient.contentManager_51  PiecesDownloaded:vector  ETV
attr source ContentManager_PieceDownloaded
attr title "Pieces Downloaded, vector"
1959	388220 419 3371388 65605532 36005.969849140607 36062.278098051942 12 0 11 66 506
vector 1961  BasicTopology.peer[41].bitTorrentApp.bitTorrentClient.contentManager_51  TotalBytesUploaded:vector  ETV
attr source ContentManager_TotalBytesUploaded
attr title "Total of Bytes Uploaded, vector"
attr unit B
1961	392846 9140 3395518 192803983 36006.003246032691 36175.031251747348 225 32768 7372800 833126400 4.1040828432384e+15
vector 1791  BasicTopology.peer[20].bitTorrentApp.bitTorrentClient.contentManager_51  PiecesDownloaded:vector  ETV
attr source ContentManager_PieceDownloaded
attr title "Pieces Downloaded, vector"
1791	221999 418 3575336 57396673 36006.453744434815 36055.544726737969 12 0 11 66 506
vector 1793  BasicTopology.peer[20].bitTorrentApp.bitTorrentClient.contentManager_51  TotalBytesUploaded:vector  ETV
attr source ContentManager_TotalBytesUploaded
attr title "Total of Bytes Uploaded, vector"
attr unit B
1793	226282 12451 3618146 207168567 36006.549701248798 36193.72865524626 305 32768 9994240 1529118720 1.0204955038188e+16
vector 1639  BasicTopology.peer[1].bitTorrentApp.bitTorrentClient.contentManager_51  PiecesDownloaded:vector  ETV
attr source ContentManager_PieceDownloaded
attr title "Pieces Downloaded, vector"
1639	57092 418 3983635 175218017 36007.168550912834 36155.458217699294 12 0 11 66 506
vector 1641  BasicTopology.peer[1].bitTorrentApp.bitTorrentClient.contentManager_51  TotalBytesUploaded:vector  ETV
attr source ContentManager_TotalBytesUploaded
attr title "Total of Bytes Uploaded, vector"
attr unit B
1641	61381 7301 4041363 205587741 36007.293593738737 36191.586246985896 180 32768 5898240 533790720 2.1047809356595e+15
vector 1688  BasicTopology.peer[7].bitTorrentApp.bitTorrentClient.contentManager_51  TotalBytesDownloaded:vector  ETV
attr source ContentManager_TotalBytesDownloaded
attr title "Total of Bytes Downloaded, vector"
attr unit B
1688	117335 3925 4132607 216773191 36007.51784192504 36209.581720798272 96 32768 3145728 152567808 3.2162433099366e+14
vector 1760  BasicTopology.peer[16].bitTorrentApp.bitTorrentClient.contentManager_51  TotalBytesDownloaded:vector  ETV
attr source ContentManager_TotalBytesDownloaded
attr title "Total of Bytes Downloaded, vector"
attr unit B
1760	195437 3949 4375155 204960981 36007.773361665625 36190.710511227593 96 32768 3145728 152567808 3.2162433099366e+14
vector 1808  BasicTopology.peer[22].bitTorrentApp.bitTorrentClient.contentManager_51  TotalBytesDownloaded:vector  ETV
attr source ContentManager_TotalBytesDownloaded
attr title "Total of Bytes Downloaded, vector"
attr unit B
1808	249104 3914 4595111 218185856 36008.069416433895 36211.897839836264 96 32768 3145728 152567808 3.2162433099366e+14
vector 1736  BasicTopology.peer[13].bitTorrentApp.bitTorrentClient.contentManager_51  TotalBytesDownloaded:vector  ETV
attr source ContentManager_TotalBytesDownloaded
attr title "Total of Bytes Downloaded, vector"
attr unit B
1736	170233 3922 4756021 203690591 36008.284003989121 36188.859152463939 96 32768 3145728 152567808 3.2162433099366e+14
vector 1648  BasicTopology.peer[2].bitTorrentApp.bitTorrentClient.contentManager_51  TotalBytesDownloaded:vector  ETV
attr source ContentManager_TotalBytesDownloaded
attr title "Total of Bytes Downloaded, vector"
attr unit B
1648	69106 3920 5127964 219949669 36008.630528550483 36214.79041580524 96 32768 3145728 152567808 3.2162433099366e+14
vector 1664  BasicTopology.peer[4].bitTorrentApp.bitTorrentClient.contentManager_51  TotalBytesDownloaded:vector  ETV
attr source ContentManager_TotalBytesDownloaded
attr title "Total of Bytes Downloaded, vector"
attr unit B
1664	88485 3910 5182977 183901970 36008.688313576717 36164.665420373773 96 32768 3145728 152567808 3.2162433099366e+14
vector 1824  BasicTopology.peer[24].bitTorrentApp.bitTorrentClient.contentManager_51  TotalBytesDownloaded:vector  ETV
attr source ContentManager_TotalBytesDownloaded
attr title "Total of Bytes Downloaded, vector"
attr unit B
1824	269608 4113 5406748 213390297 36009.118766264103 36204.365987078891 100 32768 3276800 165478400 3.633005461504e+14
vector 1807  BasicTopology.peer[22].bitTorrentApp.bitTorrentClient.contentManager_51  PiecesDownloaded:vector  ETV
attr source ContentManager_PieceDownloaded
attr title "Pieces Downloaded, vector"
1807	248678 426 5906277 218185856 36009.719613095833 36211.897839836264 12 0 11 66 506
vector 1809  BasicTopology.peer[22].bitTorrentApp.bitTorrentClient.contentManager_51  TotalBytesUploaded:vector  ETV
attr source ContentManager_TotalBytesUploaded
attr title "Total of Bytes Uploaded, vector"
attr unit B
1809	253018 7542 5942531 218206571 36009.773851153108 36211.930570475959 185 32768 6062080 563773440 2.2845843727974e+15
vector 1687  BasicTopology.peer[7].bitTorrentApp.bitTorrentClient.contentManager_51  PiecesDownloaded:vector  ETV
attr source ContentManager_PieceDownloaded
attr title "Pieces Downloaded, vector"
1687	116911 424 6686630 216773191 36010.80281550552 36209.581720798272 12 0 11 66 506
vector 1689  BasicTopology.peer[7].bitTorrentApp.bitTorrentClient.contentManager_51  TotalBytesUploaded:vector  ETV
attr source ContentManager_TotalBytesUploaded
attr title "Total of Bytes Uploaded, vector"
attr unit B
1689	121260 5479 6716999 216873480 36010.855502193672 36209.693585099825 136 32768 4456448 305266688 9.1027107374694e+14
vector 1823  BasicTopology.peer[24].bitTorrentApp.bitTorrentClient.contentManager_51  PiecesDownloaded:vector  ETV
attr source ContentManager_PieceDownloaded
attr title "Pieces Downloaded, vector"
1823	269180 428 6780613 212259849 36010.95547702006 36202.503786954975 12 0 11 66 506
vector 1825  BasicTopology.peer[24].bitTorrentApp.bitTorrentClient.contentManager_51  TotalBytesUploaded:vector  ETV
attr source ContentManager_TotalBytesUploaded
attr title "Total of Bytes Uploaded, vector"
attr unit B
1825	273721 2230 6819765 201771878 36011.005702404093 36186.228096856533 56 32768 1835008 52297728 64549063491584
vector 1800  BasicTopology.peer[21].bitTorrentApp.bitTorrentClient.contentManager_51  TotalBytesDownloaded:vector  ETV
attr source ContentManager_TotalBytesDownloaded
attr title "Total of Bytes Downloaded, vector"
attr unit B
1800	239160 3931 6847001 224510773 36011.039662159097 36223.165649971627 96 32768 3145728 152567808 3.2162433099366e+14
vector 1656  BasicTopology.peer[3].bitTorrentApp.bitTorrentClient.contentManager_51  TotalBytesDownloaded:vector  ETV
attr source ContentManager_TotalBytesDownloaded
attr title "Total of Bytes Downloaded, vector"
attr unit B
1656	79183 3928 6855897 196178263 36011.047343593043 36179.181917501972 96 32768 3145728 152567808 3.2162433099366e+14
vector 1672  BasicTopology.peer[5].bitTorrentApp.bitTorrentClient.contentManager_51  TotalBytesDownloaded:vector  ETV
attr source ContentManager_TotalBytesDownloaded
attr title "Total of Bytes Downloaded, vector"
attr unit B
1672	100517 3915 7356781 209181184 36011.961443555185 36196.939482862964 96 32768 3145728 152567808 3.2162433099366e+14
vector 1704  BasicTopology.peer[9].bitTorrentApp.bitTorrentClient.contentManager_51  TotalBytesDownloaded:vector  ETV
attr source ContentManager_TotalBytesDownloaded
attr title "Total of Bytes Downloaded, vector"
attr unit B
1704	134452 3931 7448820 231438943 36012.111752162607 36297.182714362769 96 32768 3145728 152567808 3.2162433099366e+14
vector 1680  BasicTopology.peer[6].bitTorrentApp.bitTorrentClient.contentManager_51  TotalBytesDownloaded:vector  ETV
attr source ContentManager_TotalBytesDownloaded
attr title "Total of Bytes Downloaded, vector"
attr unit B
1680	109063 3921 7553299 202504430 36012.235835958509 36187.297087901524 96 32768 3145728 152567808 3.2162433099366e+14
vector 1663  BasicTopology.peer[4].bitTorrentApp.bitTorrentClient.contentManager_51  PiecesDownloaded:vector  ETV
attr source ContentManager_PieceDownloaded
attr title "Pieces Downloaded, vector"
1663	88061 424 7743579 183901970 36012.597298203305 36164.665420373773 12 0 11 66 506
vector 1665  BasicTopology.peer[4].bitTorrentApp.bitTorrentClient.contentManager_51  TotalBytesUploaded:vector  ETV
attr source ContentManager_TotalBytesUploaded
attr title "Total of Bytes Uploaded, vector"
attr unit B
1665	92395 7695 7768730 184066131 36012.62636663514 36164.829381530359 189 32768 6193152 588349440 2.4355846855066e+15
vector 1799  BasicTopology.peer[21].bitTorrentApp.bitTorrentClient.contentManager_51  PiecesDownloaded:vector  ETV
attr source ContentManager_PieceDownloaded
attr title "Pieces Downloaded, vector"
1799	238733 427 7774608 224510773 36012.6330716853 36223.165649971627 12 0 11 66 506
vector 1776  BasicTopology.peer[18].bitTorrentApp.bitTorrentClient.contentManager_51  TotalBytesDownloaded:vector  ETV
attr source ContentManager_TotalBytesDownloaded
attr title "Total of Bytes Downloaded, vector"
attr unit B
1776	207920 3934 7850960 219594285 36012.73438826666 36214.203579956839 96 32768 3145728 152567808 3.2162433099366e+14
vector 1752  BasicTopology.peer[15].bitTorrentApp.bitTorrentClient.contentManager_51  TotalBytesDownloaded:vector  ETV
attr source ContentManager_TotalBytesDownloaded
attr title "Total of Bytes Downloaded, vector"
attr unit B
1752	184885 3930 7880843 207178421 36012.772339490719 36193.74787880691 96 32768 3145728 152567808 3.2162433099366e+14
vector 1768  BasicTopology.peer[17].bitTorrentApp.bitTorrentClient.contentManager_51  TotalBytesDownloaded:vector  ETV
attr source ContentManager_TotalBytesDownloaded
attr title "Total of Bytes Downloaded, vector"
attr unit B
1768	201303 3924 7972203 185459956 36012.947793324099 36166.281214436223 96 32768 3145728 152567808 3.2162433099366e+14
vector 1712  BasicTopology.peer[10].bitTorrentApp.bitTorrentClient.contentManager_51  TotalBytesDownloaded:vector  ETV
attr source ContentManager_TotalBytesDownloaded
attr title "Total of Bytes Downloaded, vector"
attr unit B
1712	145409 3887 8489152 112987402 36013.443694165674 36098.51561965575 96 32768 3145728 152567808 3.2162433099366e+14
vector 1703  BasicTopology.peer[9].bitTorrentApp.bitTorrentClient.contentManager_51  PiecesDownloaded:vector  ETV
attr source ContentManager_PieceDownloaded
attr title "Pieces Downloaded, vector"
1703	134026 426 8612986 231438943 36013.56000518367 36297.182714362769 12 0 11 66 506
vector 2024  BasicTopology.peer[49].bitTorrentApp.bitTorrentClient.contentManager_51  TotalBytesDownloaded:vector  ETV
attr source ContentManager_TotalBytesDownloaded
attr title "Total of Bytes Downloaded, vector"
attr unit B
2024	459066 3935 8779490 204242492 36013.699880125754 36189.726222779589 96 32768 3145728 152567808 3.2162433099366e+14
vector 1992  BasicTopology.peer[45].bitTorrentApp.bitTorrentClient.contentManager_51  TotalBytesDownloaded:vector  ETV
attr source ContentManager_TotalBytesDownloaded
attr title "Total of Bytes Downloaded, vector"
attr unit B
1992	433754 3948 8872864 226903513 36013.801214163697 36230.234734576639 96 32768 3145728 152567808 3.2162433099366e+14
vector 1864  BasicTopology.peer[29].bitTorrentApp.bitTorrentClient.contentManager_51  TotalBytesDownloaded:vector  ETV
attr source ContentManager_TotalBytesDownloaded
attr title "Total of Bytes Downloaded, vector"
attr unit B
1864	297452 3933 9395415 230596498 36014.665108206879 36294.541407359193 96 32768 3145728 152567808 3.2162433099366e+14
vector 1801  BasicTopology.peer[21].bitTorrentApp.bitTorrentClient.contentManager_51  TotalBytesUploaded:vector  ETV
attr source ContentManager_TotalBytesUploaded
attr title "Total of Bytes Uploaded, vector"
attr unit B
1801	243091 5587 9712000 224555516 36014.969667294193 36223.298603460981 137 32768 4489216 309755904 9.304241340416e+14
vector 1671  BasicTopology.peer[5].bitTorrentApp.bitTorrentClient.contentManager_51  PiecesDownloaded:vector  ETV
attr source ContentManager_PieceDownloaded
attr title "Pieces Downloaded, vector"
1671	100090 427 9813680 209181184 36015.066814151757 36196.939482862964 12 0 11 66 506
vector 1673  BasicTopology.peer[5].bitTorrentApp.bitTorrentClient.contentManager_51  TotalBytesUploaded:vector  ETV
attr source ContentManager_TotalBytesUploaded
attr title "Total of Bytes Uploaded, vector"
attr unit B
1673	104432 4203 9841616 149823369 36015.087451150579 36130.099638280792 104 32768 3407872 178913280 4.0842991501312e+14
vector 1896  BasicTopology.peer[33].bitTorrentApp.bitTorrentClient.contentManager_51  TotalBytesDownloaded:vector  ETV
attr source ContentManager_TotalBytesDownloaded
attr title "Total of Bytes Downloaded, vector"
attr unit B