file 473493 1593887685                                          
version 2
run Test-14-20200525-12:23:46-6716
attr configname Test
attr datetime 20200525-12:23:46
attr experiment "\"Simulation Test\""
attr inifile BasicConfig.ini
attr iterationvars ""
attr iterationvars2 $repetition=14
attr measurement "\"Peers: $peers, Rate: $rate\""
attr network BasicTopology
attr processid 6716
attr repetition 14
attr replication #14
attr resultdir results
attr runnumber 14
attr seedset 14
vector 3  BasicTopology.peer[1].bitTorrentApp.bitTorrentClient  DownloadComplete_Test:vector  ETV
attr source BitTorrentClient_DownloadComplete_Test
attr title "Descargas completas (prueba), vector"
3	42222 63 135 87440162 36001 36083.67199757168 2 36001 36083.671997572 72084.671997572 2598103385.8284
vector 5  BasicTopology.peer[2].bitTorrentApp.bitTorrentClient  DownloadComplete_Test:vector  ETV
attr source BitTorrentClient_DownloadComplete_Test
attr title "Descargas completas (prueba), vector"
5	42285 64 136 192379106 36001 36176.39502082527 2 36001 36176.395020825 72177.395020825 2604803557.7028
vector 7  BasicTopology.peer[3].bitTorrentApp.bitTorrentClient  DownloadComplete_Test:vector  ETV
attr source BitTorrentClient_DownloadComplete_Test
attr title "Descargas completas (prueba), vector"
7	42349 65 137 160033096 36001 36143.115360897617 2 36001 36143.115360898 72144.115360898 2602396788.9912
vector 9  BasicTopology.peer[4].bitTorrentApp.bitTorrentClient  DownloadComplete_Test:vector  ETV
attr source BitTorrentClient_DownloadComplete_Test
attr title "Descargas completas (prueba), vector"
9	42414 65 138 157500683 36001 36140.790775251996 2 36001 36140.790775252 72141.790775252 2602228758.8605
vector 11  BasicTopology.peer[5].bitTorrentApp.bitTorrentClient  DownloadComplete_Test:vector  ETV
attr source BitTorrentClient_DownloadComplete_Test
attr title "Descargas completas (prueba), vector"
11	42479 67 139 214627456 36001 36204.662441209307 2 36001 36204.662441209 72205.662441209 2606849583.4819
vector 13  BasicTopology.peer[6].bitTorrentApp.bitTorrentClient  DownloadComplete_Test:vector  ETV
attr source BitTorrentClient_DownloadComplete_Test
attr title "Descargas completas (prueba), vector"
13	42546 67 140 231331772 36001 36248.263788554939 2 36001 36248.263788555 72249.263788555 2610008628.6847
vector 15  BasicTopology.peer[7].bitTorrentApp.bitTorrentClient  DownloadComplete_Test:vector  ETV
attr source BitTorrentClient_DownloadComplete_Test
attr title "Descargas completas (prueba), vector"
15	42613 67 141 208339629 36001 36196.409275751719 2 36001 36196.409275752 72197.409275752 2606252045.4577
vector 17  BasicTopology.peer[8].bitTorrentApp.bitTorrentClient  DownloadComplete_Test:vector  ETV
attr source BitTorrentClient_DownloadComplete_Test
attr title "Descargas completas (prueba), vector"
17	42680 67 142 196878585 36001 36181.545210171737 2 36001 36181.545210172 72182.545210172 2605176214.7957
vector 19  BasicTopology.peer[9].bitTorrentApp.bitTorrentClient  DownloadComplete_Test:vector  ETV
attr source BitTorrentClient_DownloadComplete_Test
attr title "Descargas completas (prueba), vector"
19	42747 67 143 197850922 36001 36182.687887602712 2 36001 36182.687887603 72183.687887603 2605258903.7717
vector 21  BasicTopology.peer[10].bitTorrentApp.bitTorrentClient  DownloadComplete_Test:vector  ETV
attr source BitTorrentClient_DownloadComplete_Test
attr title "Descargas completas (prueba), vector"
21	42814 66 144 90758454 36001 36086.340870397421 2 36001 36086.340870397 72087.340870397 2598295998.4145
vector 23  BasicTopology.peer[11].bitTorrentApp.bitTorrentClient  DownloadComplete_Test:vector  ETV
attr source BitTorrentClient_DownloadComplete_Test
attr title "Descargas completas (prueba), vector"
23	42880 67 145 190928778 36001 36174.770052102286 2 36001 36174.770052102 72175.770052102 2604685989.3225
vector 25  BasicTopology.peer[12].bitTorrentApp.bitTorrentClient  DownloadComplete_Test:vector  ETV
attr source BitTorrentClient_DownloadComplete_Test
attr title "Descargas completas (prueba), vector"
25	42947 67 146 182717462 36001 36166.159756972297 2 36001 36166.159756972 72167.159756972 2604063112.5668
vector 27  BasicTopology.peer[13].bitTorrentApp.bitTorrentClient  DownloadComplete_Test:vector  ETV
attr source BitTorrentClient_DownloadComplete_Test
attr title "Descargas completas (prueba), vector"
27	43014 67 147 227476563 36001 36227.062564218966 2 36001 36227.062564219 72228.062564219 2608472063.0318
vector 29  BasicTopology.peer[14].bitTorrentApp.bitTorrentClient  DownloadComplete_Test:vector  ETV
attr source BitTorrentClient_DownloadComplete_Test
attr title "Descargas completas (prueba), vector"
29	43081 67 148 233730585 36001 36282.251298696377 2 36001 36282.251298696 72283.251298696 2612473760.3017
vector 31  BasicTopology.peer[15].bitTorrentApp.bitTorrentClient  DownloadComplete_Test:vector  ETV
attr source BitTorrentClient_DownloadComplete_Test
attr title "Descargas completas (prueba), vector"
31	43148 66 149 233052969 36001 36277.92236900425 2 36001 36277.922369004 72278.922369004 2612159652.4115
vector 33  BasicTopology.peer[16].bitTorrentApp.bitTorrentClient  DownloadComplete_Test:vector  ETV
attr source BitTorrentClient_DownloadComplete_Test
attr title "Descargas completas (prueba), vector"
33	43214 67 150 203864530 36001 36190.479119504542 2 36001 36190.479119505 72191.479119505 2605822779.8993
vector 35  BasicTopology.peer[17].bitTorrentApp.bitTorrentClient  DownloadComplete_Test:vector  ETV
attr source BitTorrentClient_DownloadComplete_Test
attr title "Descargas completas (prueba), vector"
35	43281 67 151 218774104 36001 36210.757000107603 2 36001 36210.757000108 72211.757000108 2607290923.5209
vector 37  BasicTopology.peer[18].bitTorrentApp.bitTorrentClient  DownloadComplete_Test:vector  ETV
attr source BitTorrentClient_DownloadComplete_Test
attr title "Descargas completas (prueba), vector"
37	43348 67 152 202135780 36001 36188.204327962159 2 36001 36188.204327962 72189.204327962 2605658133.4823
vector 39  BasicTopology.peer[19].bitTorrentApp.bitTorrentClient  DownloadComplete_Test:vector  ETV
attr source BitTorrentClient_DownloadComplete_Test
attr title "Descargas completas (prueba), vector"
39	43415 65 153 207418007 36001 36195.13630707043 2 36001 36195.13630707 72196.13630707 2606159893.2874
vector 41  BasicTopology.peer[20].bitTorrentApp.bitTorrentClient  DownloadComplete_Test:vector  ETV
attr source BitTorrentClient_DownloadComplete_Test
attr title "Descargas completas (prueba), vector"
41	43480 67 154 219003336 36001 36211.021897544937 2 36001 36211.021897545 72212.021897545 2607310107.8645
vector 43  BasicTopology.peer[21].bitTorrentApp.bitTorrentClient  DownloadComplete_Test:vector  ETV
attr source BitTorrentClient_DownloadComplete_Test
attr title "Descargas completas (prueba), vector"
43	43547 67 155 227582176 36001 36227.654326937618 2 36001 36227.654326938 72228.654326938 2608514939.0321
vector 45  BasicTopology.peer[22].bitTorrentApp.bitTorrentClient  DownloadComplete_Test:vector  ETV
attr source BitTorrentClient_DownloadComplete_Test
attr title "Descargas completas (prueba), vector"
45	43614 66 156 225238231 36001 36222.684956969804 2 36001 36222.68495697 72223.68495697 2608154906.4919
vector 47  BasicTopology.peer[23].bitTorrentApp.bitTorrentClient  DownloadComplete_Test:vector  ETV
attr source BitTorrentClient_DownloadComplete_Test
attr title "Descargas completas (prueba), vector"
47	43680 67 157 209917685 36001 36198.489467621375 2 36001 36198.489467621 72199.489467621 2606402640.7375
vector 49  BasicTopology.peer[24].bitTorrentApp.bitTorrentClient  DownloadComplete_Test:vector  ETV
attr source BitTorrentClient_DownloadComplete_Test
attr title "Descargas completas (prueba), vector"
49	43747 67 158 229270117 36001 36232.046804745798 2 36001 36232.046804746 72233.046804746 2608833216.6613
vector 51  BasicTopology.peer[25].bitTorrentApp.bitTorrentClient  DownloadComplete_Test:vector  ETV
attr source BitTorrentClient_DownloadComplete_Test
attr title "Descargas completas (prueba), vector"
51	43814 67 159 226688289 36001 36225.471363272121 2 36001 36225.471363272 72226.471363272 2608356776.4912
vector 53  BasicTopology.peer[26].bitTorrentApp.bitTorrentClient  DownloadComplete_Test:vector  ETV
attr source BitTorrentClient_DownloadComplete_Test
attr title "Descargas completas (prueba), vector"
53	43881 65 160 226492205 36001 36225.0690681988 2 36001 36225.069068199 72226.069068199 2608327629.9958
vector 55  BasicTopology.peer[27].bitTorrentApp.bitTorrentClient  DownloadComplete_Test:vector  ETV
attr source BitTorrentClient_DownloadComplete_Test
attr title "Descargas completas (prueba), vector"
55	43946 67 161 199021625 36001 36184.277644534506 2 36001 36184.277644535 72185.277644535 2605373949.6568
vector 57  BasicTopology.peer[28].bitTorrentApp.bitTorrentClient  DownloadComplete_Test:vector  ETV
attr source BitTorrentClient_DownloadComplete_Test
attr title "Descargas completas (prueba), vector"
57	44013 67 162 186468622 36001 36170.064748127778 2 36001 36170.064748128 72171.064748128 2604345584.8838
vector 59  BasicTopology.peer[29].bitTorrentApp.bitTorrentClient  DownloadComplete_Test:vector  ETV
attr source BitTorrentClient_DownloadComplete_Test
attr title "Descargas completas (prueba), vector"
59	44080 67 163 180646914 36001 36164.038565282187 2 36001 36164.038565282 72165.038565282 2603909686.3512
vector 61  BasicTopology.peer[30].bitTorrentApp.bitTorrentClient  DownloadComplete_Test:vector  ETV
attr source BitTorrentClient_DownloadComplete_Test
attr title "Descargas completas (prueba), vector"
61	44147 67 164 221446070 36001 36215.058969572968 2 36001 36215.058969573 72216.058969573 2607602497.1697
vector 63  BasicTopology.peer[31].bitTorrentApp.bitTorrentClient  DownloadComplete_Test:vector  ETV
attr source BitTorrentClient_DownloadComplete_Test
attr title "Descargas completas (prueba), vector"
63	44214 66 165 229942769 36001 36241.103596589509 2 36001 36241.10359659 72242.10359659 2609489590.8988
vector 65  BasicTopology.peer[32].bitTorrentApp.bitTorrentClient  DownloadComplete_Test:vector  ETV
attr source BitTorrentClient_DownloadComplete_Test
attr title "Descargas completas (prueba), vector"
65	44280 67 166 205671923 36001 36192.921135899014 2 36001 36192.921135899 72193.921135899 2605999541.3494
vector 67  BasicTopology.peer[33].bitTorrentApp.bitTorrentClient  DownloadComplete_Test:vector  ETV
attr source BitTorrentClient_DownloadComplete_Test
attr title "Descargas completas (prueba), vector"
67	44347 67 167 197752093 36001 36182.574261732231 2 36001 36182.574261732 72183.574261732 2605250681.2058
vector 69  BasicTopology.peer[34].bitTorrentApp.bitTorrentClient  DownloadComplete_Test:vector  ETV
attr source BitTorrentClient_DownloadComplete_Test
attr title "Descargas completas (prueba), vector"
69	44414 66 168 232927938 36001 36273.793566939696 2 36001 36273.79356694 72274.79356694 2611860100.737
vector 71  BasicTopology.peer[35].bitTorrentApp.bitTorrentClient  DownloadComplete_Test:vector  ETV
attr source BitTorrentClient_DownloadComplete_Test
attr title "Descargas completas (prueba), vector"
71	44480 67 169 189316114 36001 36173.075301914294 2 36001 36173.075301914 72174.075301914 2604563377.7979
vector 73  BasicTopology.peer[36].bitTorrentApp.bitTorrentClient  DownloadComplete_Test:vector  ETV
attr source BitTorrentClient_DownloadComplete_Test
attr title "Descargas completas (prueba), vector"
73	44547 67 170 221712402 36001 36215.728205524319 2 36001 36215.728205524 72216.728205524 2607650970.4564
vector 75  BasicTopology.peer[37].bitTorrentApp.bitTorrentClient  DownloadComplete_Test:vector  ETV
attr source BitTorrentClient_DownloadComplete_Test
attr title "Descargas completas (prueba), vector"
75	44614 66 171 233206892 36001 36279.219330040012 2 36001 36279.21933004 72280.21933004 2612253756.1971
vector 77  BasicTopology.peer[38].bitTorrentApp.bitTorrentClient  DownloadComplete_Test:vector  ETV
attr source BitTorrentClient_DownloadComplete_Test
attr title "Descargas completas (prueba), vector"
77	44680 67 172 212638992 36001 36201.971896986188 2 36001 36201.971896986 72202.971896986 2606654770.2302
vector 79  BasicTopology.peer[39].bitTorrentApp.bitTorrentClient  DownloadComplete_Test:vector  ETV
attr source BitTorrentClient_DownloadComplete_Test
attr title "Descargas completas (prueba), vector"
79	44747 67 173 188931714 36001 36172.590501263262 2 36001 36172.590501263 72173.590501263 2604528304.5721
vector 81  BasicTopology.peer[40].bitTorrentApp.bitTorrentClient  DownloadComplete_Test:vector  ETV
attr source BitTorrentClient_DownloadComplete_Test
attr title "Descargas completas (prueba), vector"
81	44814 67 174 227877876 36001 36228.412266992224 2 36001 36228.412266992 72229.412266992 2608569856.3871
vector 83  BasicTopology.peer[41].bitTorrentApp.bitTorrentClient  DownloadComplete_Test:vector  ETV
attr source BitTorrentClient_DownloadComplete_Test
attr title "Descargas completas (prueba), vector"
83	44881 67 175 224573591 36001 36221.591126039423 2 36001 36221.591126039 72222.591126039 2608075664.7019
vector 85  BasicTopology.peer[42].bitTorrentApp.bitTorrentClient  DownloadComplete_Test:vector  ETV
attr source BitTorrentClient_DownloadComplete_Test
attr title "Descargas completas (prueba), vector"
85	44948 67 176 169207600 36001 36152.043490276896 2 36001 36152.043490277 72153.043490277 2603042249.5229
vector 87  BasicTopology.peer[43].bitTorrentApp.bitTorrentClient  DownloadComplete_Test:vector  ETV
attr source BitTorrentClient_DownloadComplete_Test
attr title "Descargas completas (prueba), vector"
87	45015 67 177 222621452 36001 36217.512589803015 2 36001 36217.512589803 72218.512589803 2607780219.1925
vector 89  BasicTopology.peer[44].bitTorrentApp.bitTorrentClient  DownloadComplete_Test:vector  ETV
attr source BitTorrentClient_DownloadComplete_Test
attr title "Descargas completas (prueba), vector"
89	45082 66 178 195194593 36001 36179.520946029872 2 36001 36179.52094603 72180.52094603 2605029736.8842
vector 91  BasicTopology.peer[45].bitTorrentApp.bitTorrentClient  DownloadComplete_Test:vector  ETV
attr source BitTorrentClient_DownloadComplete_Test
attr title "Descargas completas (prueba), vector"
91	45148 67 179 229557662 36001 36233.528085562413 2 36001 36233.528085562 72234.528085562 2608940558.5272
vector 93  BasicTopology.peer[46].bitTorrentApp.bitTorrentClient  DownloadComplete_Test:vector  ETV
attr source BitTorrentClient_DownloadComplete_Test
attr title "Descargas completas (prueba), vector"
93	45215 67 180 211606552 36001 36200.647306371799 2 36001 36200.647306372 72201.647306372 2606558866.4003
vector 95  BasicTopology.peer[47].bitTorrentApp.bitTorrentClient  DownloadComplete_Test:vector  ETV
attr source BitTorrentClient_DownloadComplete_Test
attr title "Descargas completas (prueba), vector"
95	45282 67 181 198913688 36001 36184.121937568606 2 36001 36184.121937569 72185.121937569 2605362681.3929
vector 97  BasicTopology.peer[48].bitTorrentApp.bitTorrentClient  DownloadComplete_Test:vector  ETV
attr source BitTorrentClient_DownloadComplete_Test
attr title "Descargas completas (prueba), vector"
97	45349 67 182 212239682 36001 36201.441930923498 2 36001 36201.441930923 72202.441930923 2606616398.878
vector 99  BasicTopology.peer[49].bitTorrentApp.bitTorrentClient  DownloadComplete_Test:vector  ETV
attr source BitTorrentClient_DownloadComplete_Test
attr title "Descargas completas (prueba), vector"
99	45416 67 183 174269748 36001 36157.539757092911 2 36001 36157.539757093 72158.539757093 2603439682.2858
vector 1633  BasicTopology.peer[0].bitTorrentApp.bitTorrentClient.contentManager_51  TotalBytesUploaded:vector  ETV
attr source ContentManager_TotalBytesUploaded
attr title "Total of Bytes Uploaded, vector"
attr unit B
1633	45483 13433 1042299 211055602 36002.035922620889 36200.016560480121 331 32768 10846208 1800470528 1.3038517835792e+16
vector 1648  BasicTopology.peer[2].bitTorrentApp.bitTorrentClient.contentManager_51  TotalBytesDownloaded:vector  ETV
attr source ContentManager_TotalBytesDownloaded
attr title "Total of Bytes Downloaded, vector"
attr unit B
1648	75408 3887 1682643 192379106 36003.538511609524 36176.39502082527 96 32768 3145728 152567808 3.2162433099366e+14
vector 1640  BasicTopology.peer[1].bitTorrentApp.bitTorrentClient.contentManager_51  TotalBytesDownloaded:vector  ETV
attr source ContentManager_TotalBytesDownloaded
attr title "Total of Bytes Downloaded, vector"
attr unit B
1640	59333 3860 1713319 87440162 36003.97275084483 36083.67199757168 96 32768 3145728 152567808 3.2162433099366e+14
vector 1712  BasicTopology.peer[10].bitTorrentApp.bitTorrentClient.contentManager_51  TotalBytesDownloaded:vector  ETV
attr source ContentManager_TotalBytesDownloaded
attr title "Total of Bytes Downloaded, vector"
attr unit B
1712	156008 4182 2370394 90758454 36004.593814957402 36086.340870397421 104 32768 3407872 178913280 4.0842991501312e+14
vector 1880  BasicTopology.peer[31].bitTorrentApp.bitTorrentClient.contentManager_51  TotalBytesDownloaded:vector  ETV
attr source ContentManager_TotalBytesDownloaded
attr title "Total of Bytes Downloaded, vector"
attr unit B
1880	327575 4350 3095318 229942769 36005.650138707176 36241.103596589509 106 32768 3473408 185827328 4.3233248175718e+14
vector 1639  BasicTopology.peer[1].bitTorrentApp.bitTorrentClient.contentManager_51  PiecesDownloaded:vector  ETV
attr source ContentManager_PieceDownloaded
attr title "Pieces Downloaded, vector"
1639	58916 417 3360440 87440162 36006.368155033946 36083.67199757168 12 0 11 66 506
vector 1641  BasicTopology.peer[1].bitTorrentApp.bitTorrentClient.contentManager_51  TotalBytesUploaded:vector  ETV
attr source ContentManager_TotalBytesUploaded
attr title "Total of Bytes Uploaded, vector"
attr unit B
1641	63193 11794 3378947 225494856 36006.40342275503 36223.15626138686 290 32768 9502720 1382645760 8.7743658563994e+15
vector 1711  BasicTopology.peer[10].bitTorrentApp.bitTorrentClient.contentManager_51  PiecesDownloaded:vector  ETV
attr source ContentManager_PieceDownloaded
attr title "Pieces Downloaded, vector"
1711	155591 417 3682405 90758454 36007.214868514757 36086.340870397421 12 0 11 66 506
vector 1713  BasicTopology.peer[10].bitTorrentApp.bitTorrentClient.contentManager_51  TotalBytesUploaded:vector  ETV
attr source ContentManager_TotalBytesUploaded
attr title "Total of Bytes Uploaded, vector"
attr unit B
1713	160190 12852 3698717 222513467 36007.248969078952 36217.336599493636 314 32768 10289152 1620541440 1.1133698766275e+16
vector 1792  BasicTopology.peer[20].bitTorrentApp.bitTorrentClient.contentManager_51  TotalBytesDownloaded:vector  ETV
attr source ContentManager_TotalBytesDownloaded
attr title "Total of Bytes Downloaded, vector"
attr unit B
1792	249587 4361 3918621 219003336 36007.742629511528 36211.021897544937 106 32768 3473408 185827328 4.3233248175718e+14
vector 1647  BasicTopology.peer[2].bitTorrentApp.bitTorrentClient.contentManager_51  PiecesDownloaded:vector  ETV
attr source ContentManager_PieceDownloaded
attr title "Pieces Downloaded, vector"
1647	74987 421 4077627 192379106 36008.146171830593 36176.39502082527 12 0 11 66 506
vector 1649  BasicTopology.peer[2].bitTorrentApp.bitTorrentClient.contentManager_51  TotalBytesUploaded:vector  ETV
attr source ContentManager_TotalBytesUploaded
attr title "Total of Bytes Uploaded, vector"
attr unit B
1649	79295 7129 4098004 150462841 36008.186899484597 36134.406647296549 176 32768 5767168 510394368 1.9679282452234e+15
vector 1728  BasicTopology.peer[12].bitTorrentApp.bitTorrentClient.contentManager_51  TotalBytesDownloaded:vector  ETV
attr source ContentManager_TotalBytesDownloaded
attr title "Total of Bytes Downloaded, vector"
attr unit B
1728	184466 3911 4169713 182717462 36008.351092776228 36166.159756972297 96 32768 3145728 152567808 3.2162433099366e+14
vector 1688  BasicTopology.peer[7].bitTorrentApp.bitTorrentClient.contentManager_51  TotalBytesDownloaded:vector  ETV
attr source ContentManager_TotalBytesDownloaded
attr title "Total of Bytes Downloaded, vector"
attr unit B
1688	133033 3932 4561000 208339629 36008.823949220402 36196.409275751719 96 32768 3145728 152567808 3.2162433099366e+14
vector 1656  BasicTopology.peer[3].bitTorrentApp.bitTorrentClient.contentManager_51  TotalBytesDownloaded:vector  ETV
attr source ContentManager_TotalBytesDownloaded
attr title "Total of Bytes Downloaded, vector"
attr unit B
1656	86851 3925 4782205 160033096 36009.368909638131 36143.115360897617 96 32768 3145728 152567808 3.2162433099366e+14
vector 1704  BasicTopology.peer[9].bitTorrentApp.bitTorrentClient.contentManager_51  TotalBytesDownloaded:vector  ETV
attr source ContentManager_TotalBytesDownloaded
attr title "Total of Bytes Downloaded, vector"
attr unit B
1704	145016 3928 5042792 197850922 36009.934896261034 36182.687887602712 96 32768 3145728 152567808 3.2162433099366e+14
vector 1879  BasicTopology.peer[31].bitTorrentApp.bitTorrentClient.contentManager_51  PiecesDownloaded:vector  ETV
attr source ContentManager_PieceDownloaded
attr title "Pieces Downloaded, vector"
1879	327147 428 5437301 229942769 36010.463548728411 36241.103596589509 12 0 11 66 506
vector 1881  BasicTopology.peer[31].bitTorrentApp.bitTorrentClient.contentManager_51  TotalBytesUploaded:vector  ETV
attr source ContentManager_TotalBytesUploaded
attr title "Total of Bytes Uploaded, vector"
attr unit B
1881	331925 4815 5472368 230030698 36010.514619217473 36242.17584176232 119 32768 3899392 233963520 6.1076582432768e+14
vector 1655  BasicTopology.peer[3].bitTorrentApp.bitTorrentClient.contentManager_51  PiecesDownloaded:vector  ETV
attr source ContentManager_PieceDownloaded
attr title "Pieces Downloaded, vector"
1655	86424 427 6339134 160033096 36011.957871039582 36143.115360897617 12 0 11 66 506
vector 1657  BasicTopology.peer[3].bitTorrentApp.bitTorrentClient.contentManager_51  TotalBytesUploaded:vector  ETV
attr source ContentManager_TotalBytesUploaded
attr title "Total of Bytes Uploaded, vector"
attr unit B
1657	90776 6306 6374767 120732621 36012.001391200612 36109.159491490886 155 32768 5079040 396165120 1.3457528402739e+15
vector 1696  BasicTopology.peer[8].bitTorrentApp.bitTorrentClient.contentManager_51  TotalBytesDownloaded:vector  ETV
attr source ContentManager_TotalBytesDownloaded
attr title "Total of Bytes Downloaded, vector"
attr unit B
1696	139047 3933 6390772 196878585 36012.024760702049 36181.545210171737 96 32768 3145728 152567808 3.2162433099366e+14
vector 1703  BasicTopology.peer[9].bitTorrentApp.bitTorrentClient.contentManager_51  PiecesDownloaded:vector  ETV
attr source ContentManager_PieceDownloaded
attr title "Pieces Downloaded, vector"
1703	144590 426 6895371 197850922 36012.925929134493 36182.687887602712 12 0 11 66 506
vector 1705  BasicTopology.peer[9].bitTorrentApp.bitTorrentClient.contentManager_51  TotalBytesUploaded:vector  ETV
attr source ContentManager_TotalBytesUploaded
attr title "Total of Bytes Uploaded, vector"
attr unit B
1705	148944 6647 6913678 197889116 36012.944378002418 36182.720171995112 164 32768 5373952 443351040 1.593207381033e+15
vector 1664  BasicTopology.peer[4].bitTorrentApp.bitTorrentClient.contentManager_51  TotalBytesDownloaded:vector  ETV
attr source ContentManager_TotalBytesDownloaded
attr title "Total of Bytes Downloaded, vector"
attr unit B
1664	97507 3917 7239035 157500683 36013.268500871694 36140.790775251996 96 32768 3145728 152567808 3.2162433099366e+14
vector 1791  BasicTopology.peer[20].bitTorrentApp.bitTorrentClient.contentManager_51  PiecesDownloaded:vector  ETV
attr source ContentManager_PieceDownloaded
attr title "Pieces Downloaded, vector"
1791	249162 425 7269084 219003336 36013.315207871771 36211.021897544937 12 0 11 66 506
vector 1793  BasicTopology.peer[20].bitTorrentApp.bitTorrentClient.contentManager_51  TotalBytesUploaded:vector  ETV
attr source ContentManager_TotalBytesUploaded
attr title "Total of Bytes Uploaded, vector"
attr unit B
1793	253948 5935 7289524 175621020 36013.342805632165 36158.913195988982 146 32768 4784128 351633408 1.1253469298033e+15
vector 1776  BasicTopology.peer[18].bitTorrentApp.bitTorrentClient.contentManager_51  TotalBytesDownloaded:vector  ETV
attr source ContentManager_TotalBytesDownloaded
attr title "Total of Bytes Downloaded, vector"
attr unit B
1776	229842 4276 7424197 202135780 36013.742071032017 36188.204327962159 104 32768 3407872 178913280 4.0842991501312e+14
vector 1727  BasicTopology.peer[12].bitTorrentApp.bitTorrentClient.contentManager_51  PiecesDownloaded:vector  ETV
attr source ContentManager_PieceDownloaded
attr title "Pieces Downloaded, vector"
1727	184042 424 7617500 182717462 36014.052593230523 36166.159756972297 12 0 11 66 506
vector 1729  BasicTopology.peer[12].bitTorrentApp.bitTorrentClient.contentManager_51  TotalBytesUploaded:vector  ETV
attr source ContentManager_TotalBytesUploaded
attr title "Total of Bytes Uploaded, vector"
attr unit B
1729	188377 6524 7649698 213275161 36014.097375825877 36202.787542206689 159 32768 5210112 416808960 1.4523002414694e+15
vector 1768  BasicTopology.peer[17].bitTorrentApp.bitTorrentClient.contentManager_51  TotalBytesDownloaded:vector  ETV
attr source ContentManager_TotalBytesDownloaded
attr title "Total of Bytes Downloaded, vector"
attr unit B
1768	222307 3947 7875436 218774104 36014.400736963324 36210.757000107603 96 32768 3145728 152567808 3.2162433099366e+14
vector 1672  BasicTopology.peer[5].bitTorrentApp.bitTorrentClient.contentManager_51  TotalBytesDownloaded:vector  ETV
attr source ContentManager_TotalBytesDownloaded
attr title "Total of Bytes Downloaded, vector"
attr unit B
1672	112443 3934 8099656 214627456 36014.665640755572 36204.662441209307 96 32768 3145728 152567808 3.2162433099366e+14
vector 1680  BasicTopology.peer[6].bitTorrentApp.bitTorrentClient.contentManager_51  TotalBytesDownloaded:vector  ETV
attr source ContentManager_TotalBytesDownloaded
attr title "Total of Bytes Downloaded, vector"
attr unit B
1680	121387 3929 8156828 231331772 36014.740900851816 36248.263788554939 96 32768 3145728 152567808 3.2162433099366e+14
vector 1760  BasicTopology.peer[16].bitTorrentApp.bitTorrentClient.contentManager_51  TotalBytesDownloaded:vector  ETV
attr source ContentManager_TotalBytesDownloaded
attr title "Total of Bytes Downloaded, vector"
attr unit B
1760	216163 3935 8189953 203864530 36014.779263759541 36190.479119504542 96 32768 3145728 152567808 3.2162433099366e+14
vector 1800  BasicTopology.peer[21].bitTorrentApp.bitTorrentClient.contentManager_51  TotalBytesDownloaded:vector  ETV
attr source ContentManager_TotalBytesDownloaded
attr title "Total of Bytes Downloaded, vector"
attr unit B
1800	260309 3920 8196532 227582176 36014.78585542822 36227.654326937618 96 32768 3145728 152567808 3.2162433099366e+14
vector 1799  BasicTopology.peer[21].bitTorrentApp.bitTorrentClient.contentManager_51  PiecesDownloaded:vector  ETV
attr source ContentManager_PieceDownloaded
attr title "Pieces Downloaded, vector"
1799	259883 426 8568684 227582176 36015.129943653732 36227.654326937618 12 0 11 66 506
vector 1928  BasicTopology.peer[37].bitTorrentApp.bitTorrentClient.contentManager_51  TotalBytesDownloaded:vector  ETV
attr source ContentManager_TotalBytesDownloaded
attr title "Total of Bytes Downloaded, vector"
attr unit B
1928	376299 4871 8605675 233206892 36015.182454741408 36279.219330040012 118 32768 3866624 230064128 5.9556056635802e+14
vector 1744  BasicTopology.peer[14].bitTorrentApp.bitTorrentClient.contentManager_51  TotalBytesDownloaded:vector  ETV
attr source ContentManager_TotalBytesDownloaded
attr title "Total of Bytes Downloaded, vector"
attr unit B
1744	203353 3958 9022246 233730585 36015.697154757187 36282.251298696377 96 32768 3145728 152567808 3.2162433099366e+14
vector 1888  BasicTopology.peer[32].bitTorrentApp.bitTorrentClient.contentManager_51  TotalBytesDownloaded:vector  ETV
attr source ContentManager_TotalBytesDownloaded
attr title "Total of Bytes Downloaded, vector"
attr unit B
1888	337168 4273 9057234 205671923 36015.734222237734 36192.921135899014 104 32768 3407872 178913280 4.0842991501312e+14
vector 1767  BasicTopology.peer[17].bitTorrentApp.bitTorrentClient.contentManager_51  PiecesDownloaded:vector  ETV
attr source ContentManager_PieceDownloaded
attr title "Pieces Downloaded, vector"
1767	221879 428 9454364 218774104 36016.15740548425 36210.757000107603 12 0 11 66 506
vector 1968  BasicTopology.peer[42].bitTorrentApp.bitTorrentClient.contentManager_51  TotalBytesDownloaded:vector  ETV
attr source ContentManager_TotalBytesDownloaded
attr title "Total of Bytes Downloaded, vector"
attr unit B
1968	415619 3927 9606194 169207600 36016.277257261189 36152.043490276896 96 32768 3145728 152567808 3.2162433099366e+14
vector 1944  BasicTopology.peer[39].bitTorrentApp.bitTorrentClient.contentManager_51  TotalBytesDownloaded:vector  ETV
attr source ContentManager_TotalBytesDownloaded
attr title "Total of Bytes Downloaded, vector"
attr unit B
1944	389771 3994 9651125 188931714 36016.323246962473 36172.590501263262 97 32768 3178496 155746304 3.3172716781568e+14
vector 1960  BasicTopology.peer[41].bitTorrentApp.bitTorrentClient.contentManager_51  TotalBytesDownloaded:vector  ETV
attr source ContentManager_TotalBytesDownloaded
attr title "Total of Bytes Downloaded, vector"
attr unit B
1960	405640 4387 9775381 224573591 36016.43785959603 36221.591126039423 107 32768 3506176 189333504 4.4462575190016e+14
vector 1992  BasicTopology.peer[45].bitTorrentApp.bitTorrentClient.contentManager_51  TotalBytesDownloaded:vector  ETV
attr source ContentManager_TotalBytesDownloaded
attr title "Total of Bytes Downloaded, vector"
attr unit B
1992	445197 3946 9792020 229557662 36016.453584540366 36233.528085562413 96 32768 3145728 152567808 3.2162433099366e+14
vector 1801  BasicTopology.peer[21].bitTorrentApp.bitTorrentClient.contentManager_51  TotalBytesUploaded:vector  ETV
attr source ContentManager_TotalBytesUploaded
attr title "Total of Bytes Uploaded, vector"
attr unit B