file 472946 1593887685                                          
version 2
run Test-18-20200525-12:24:11-6790
attr configname Test
attr datetime 20200525-12:24:11
attr experiment "\"Simulation Test\""
attr inifile BasicConfig.ini
attr iterationvars ""
attr iterationvars2 $repetition=18
attr measurement "\"Peers: $peers, Rate: $rate\""
attr network BasicTopology
attr processid 6790
attr repetition 18
attr replication #18
attr resultdir results
attr runnumber 18
attr seedset 18
vector 3  BasicTopology.peer[1].bitTorrentApp.bitTorrentClient  DownloadComplete_Test:vector  ETV
attr source BitTorrentClient_DownloadComplete_Test
attr title "Descargas completas (prueba), vector"
3	42222 65 135 224895565 36001 36209.440841724343 2 36001 36209.440841724 72210.440841724 2607195607.0703
vector 5  BasicTopology.peer[2].bitTorrentApp.bitTorrentClient  DownloadComplete_Test:vector  ETV
attr source BitTorrentClient_DownloadComplete_Test
attr title "Descargas completas (prueba), vector"
5	42287 64 136 59497234 36001 36055.064082585066 2 36001 36055.064082585 72056.064082585 2596039646.9993
vector 7  BasicTopology.peer[3].bitTorrentApp.bitTorrentClient  DownloadComplete_Test:vector  ETV
attr source BitTorrentClient_DownloadComplete_Test
attr title "Descargas completas (prueba), vector"
7	42351 65 137 195646823 36001 36173.895541478109 2 36001 36173.895541478 72174.895541478 2604622719.6458
vector 9  BasicTopology.peer[4].bitTorrentApp.bitTorrentClient  DownloadComplete_Test:vector  ETV
attr source BitTorrentClient_DownloadComplete_Test
attr title "Descargas completas (prueba), vector"
9	42416 65 138 228107719 36001 36213.770610025847 2 36001 36213.770610026 72214.770610026 2607509182.7956
vector 11  BasicTopology.peer[5].bitTorrentApp.bitTorrentClient  DownloadComplete_Test:vector  ETV
attr source BitTorrentClient_DownloadComplete_Test
attr title "Descargas completas (prueba), vector"
11	42481 67 139 237200665 36001 36229.053665255534 2 36001 36229.053665256 72230.053665256 2608616330.48
vector 13  BasicTopology.peer[6].bitTorrentApp.bitTorrentClient  DownloadComplete_Test:vector  ETV
attr source BitTorrentClient_DownloadComplete_Test
attr title "Descargas completas (prueba), vector"
13	42548 67 140 231927618 36001 36219.396906294422 2 36001 36219.396906294 72220.396906294 2607916713.2557
vector 15  BasicTopology.peer[7].bitTorrentApp.bitTorrentClient  DownloadComplete_Test:vector  ETV
attr source BitTorrentClient_DownloadComplete_Test
attr title "Descargas completas (prueba), vector"
15	42615 67 141 225676985 36001 36210.462248732098 2 36001 36210.462248732 72211.462248732 2607269577.2668
vector 17  BasicTopology.peer[8].bitTorrentApp.bitTorrentClient  DownloadComplete_Test:vector  ETV
attr source BitTorrentClient_DownloadComplete_Test
attr title "Descargas completas (prueba), vector"
17	42682 67 142 179437347 36001 36157.559867448192 2 36001 36157.559867448 72158.559867448 2603441136.5681
vector 19  BasicTopology.peer[9].bitTorrentApp.bitTorrentClient  DownloadComplete_Test:vector  ETV
attr source BitTorrentClient_DownloadComplete_Test
attr title "Descargas completas (prueba), vector"
19	42749 67 143 185285937 36001 36163.310500161809 2 36001 36163.310500162 72164.310500162 2603857027.3311
vector 21  BasicTopology.peer[10].bitTorrentApp.bitTorrentClient  DownloadComplete_Test:vector  ETV
attr source BitTorrentClient_DownloadComplete_Test
attr title "Descargas completas (prueba), vector"
21	42816 67 144 217366441 36001 36199.379618173583 2 36001 36199.379618174 72200.379618174 2606467085.7407
vector 23  BasicTopology.peer[11].bitTorrentApp.bitTorrentClient  DownloadComplete_Test:vector  ETV
attr source BitTorrentClient_DownloadComplete_Test
attr title "Descargas completas (prueba), vector"
23	42883 67 145 189826868 36001 36167.543388882454 2 36001 36167.543388882 72168.543388882 2604163195.7867
vector 25  BasicTopology.peer[12].bitTorrentApp.bitTorrentClient  DownloadComplete_Test:vector  ETV
attr source BitTorrentClient_DownloadComplete_Test
attr title "Descargas completas (prueba), vector"
25	42950 67 146 165582043 36001 36143.894383935878 2 36001 36143.894383936 72144.894383936 2602453102.2371
vector 27  BasicTopology.peer[13].bitTorrentApp.bitTorrentClient  DownloadComplete_Test:vector  ETV
attr source BitTorrentClient_DownloadComplete_Test
attr title "Descargas completas (prueba), vector"
27	43017 66 147 218459351 36001 36200.710571380081 2 36001 36200.71057138 72201.71057138 2606563446.8728
vector 29  BasicTopology.peer[14].bitTorrentApp.bitTorrentClient  DownloadComplete_Test:vector  ETV
attr source BitTorrentClient_DownloadComplete_Test
attr title "Descargas completas (prueba), vector"
29	43083 67 148 241907918 36001 36302.767524506101 2 36001 36302.767524506 72303.767524506 2613962930.9383
vector 31  BasicTopology.peer[15].bitTorrentApp.bitTorrentClient  DownloadComplete_Test:vector  ETV
attr source BitTorrentClient_DownloadComplete_Test
attr title "Descargas completas (prueba), vector"
31	43150 67 149 233471872 36001 36222.054070163812 2 36001 36222.054070164 72223.054070164 2608109202.0619
vector 33  BasicTopology.peer[16].bitTorrentApp.bitTorrentClient  DownloadComplete_Test:vector  ETV
attr source BitTorrentClient_DownloadComplete_Test
attr title "Descargas completas (prueba), vector"
33	43217 67 150 226989569 36001 36212.273647054422 2 36001 36212.273647054 72213.273647054 2607400763.6891
vector 35  BasicTopology.peer[17].bitTorrentApp.bitTorrentClient  DownloadComplete_Test:vector  ETV
attr source BitTorrentClient_DownloadComplete_Test
attr title "Descargas completas (prueba), vector"
35	43284 67 151 235001859 36001 36224.976354613428 2 36001 36224.976354613 72225.976354613 2608320912.8923
vector 37  BasicTopology.peer[18].bitTorrentApp.bitTorrentClient  DownloadComplete_Test:vector  ETV
attr source BitTorrentClient_DownloadComplete_Test
attr title "Descargas completas (prueba), vector"
37	43351 67 152 228672007 36001 36214.512058718153 2 36001 36214.512058718 72215.512058718 2607562884.651
vector 39  BasicTopology.peer[19].bitTorrentApp.bitTorrentClient  DownloadComplete_Test:vector  ETV
attr source BitTorrentClient_DownloadComplete_Test
attr title "Descargas completas (prueba), vector"
39	43418 67 153 203857714 36001 36183.261014682041 2 36001 36183.261014682 72184.261014682 2605300378.6566
vector 41  BasicTopology.peer[20].bitTorrentApp.bitTorrentClient  DownloadComplete_Test:vector  ETV
attr source BitTorrentClient_DownloadComplete_Test
attr title "Descargas completas (prueba), vector"
41	43485 67 154 221798273 36001 36204.873535876838 2 36001 36204.873535877 72205.873535877 2606864868.7488
vector 43  BasicTopology.peer[21].bitTorrentApp.bitTorrentClient  DownloadComplete_Test:vector  ETV
attr source BitTorrentClient_DownloadComplete_Test
attr title "Descargas completas (prueba), vector"
43	43552 67 155 208737422 36001 36188.866408637421 2 36001 36188.866408637 72189.866408637 2605706052.9422
vector 45  BasicTopology.peer[22].bitTorrentApp.bitTorrentClient  DownloadComplete_Test:vector  ETV
attr source BitTorrentClient_DownloadComplete_Test
attr title "Descargas completas (prueba), vector"
45	43619 66 156 199288170 36001 36177.77685021229 2 36001 36177.776850212 72178.776850212 2604903538.8237
vector 47  BasicTopology.peer[23].bitTorrentApp.bitTorrentClient  DownloadComplete_Test:vector  ETV
attr source BitTorrentClient_DownloadComplete_Test
attr title "Descargas completas (prueba), vector"
47	43685 67 157 238211378 36001 36233.651022915208 2 36001 36233.651022915 72234.651022915 2608949467.4504
vector 49  BasicTopology.peer[24].bitTorrentApp.bitTorrentClient  DownloadComplete_Test:vector  ETV
attr source BitTorrentClient_DownloadComplete_Test
attr title "Descargas completas (prueba), vector"
49	43752 66 158 215252808 36001 36197.202601910211 2 36001 36197.20260191 72198.20260191 2606309477.2037
vector 51  BasicTopology.peer[25].bitTorrentApp.bitTorrentClient  DownloadComplete_Test:vector  ETV
attr source BitTorrentClient_DownloadComplete_Test
attr title "Descargas completas (prueba), vector"
51	43818 66 159 230336170 36001 36217.00172908629 2 36001 36217.001729086 72218.001729086 2607743215.2446
vector 53  BasicTopology.peer[26].bitTorrentApp.bitTorrentClient  DownloadComplete_Test:vector  ETV
attr source BitTorrentClient_DownloadComplete_Test
attr title "Descargas completas (prueba), vector"
53	43884 67 160 237816201 36001 36230.166359576404 2 36001 36230.166359576 72231.166359576 2608696955.4426
vector 55  BasicTopology.peer[27].bitTorrentApp.bitTorrentClient  DownloadComplete_Test:vector  ETV
attr source BitTorrentClient_DownloadComplete_Test
attr title "Descargas completas (prueba), vector"
55	43951 67 161 233947727 36001 36222.814724146924 2 36001 36222.814724147 72223.814724147 2608164307.5399
vector 57  BasicTopology.peer[28].bitTorrentApp.bitTorrentClient  DownloadComplete_Test:vector  ETV
attr source BitTorrentClient_DownloadComplete_Test
attr title "Descargas completas (prueba), vector"
57	44018 67 162 236906162 36001 36228.556455973652 2 36001 36228.556455974 72229.556455974 2608580303.8837
vector 59  BasicTopology.peer[29].bitTorrentApp.bitTorrentClient  DownloadComplete_Test:vector  ETV
attr source BitTorrentClient_DownloadComplete_Test
attr title "Descargas completas (prueba), vector"
59	44085 67 163 219154599 36001 36201.510858534569 2 36001 36201.510858535 72202.510858535 2606621389.4406
vector 61  BasicTopology.peer[30].bitTorrentApp.bitTorrentClient  DownloadComplete_Test:vector  ETV
attr source BitTorrentClient_DownloadComplete_Test
attr title "Descargas completas (prueba), vector"
61	44152 67 164 193951810 36001 36171.981586501177 2 36001 36171.981586501 72172.981586501 2604484252.8942
vector 63  BasicTopology.peer[31].bitTorrentApp.bitTorrentClient  DownloadComplete_Test:vector  ETV
attr source BitTorrentClient_DownloadComplete_Test
attr title "Descargas completas (prueba), vector"
63	44219 67 165 214639662 36001 36196.510633666384 2 36001 36196.510633666 72197.510633666 2606259383.0531
vector 65  BasicTopology.peer[32].bitTorrentApp.bitTorrentClient  DownloadComplete_Test:vector  ETV
attr source BitTorrentClient_DownloadComplete_Test
attr title "Descargas completas (prueba), vector"
65	44286 67 166 183522418 36001 36161.517177665299 2 36001 36161.517177665 72162.517177665 2603727325.5906
vector 67  BasicTopology.peer[33].bitTorrentApp.bitTorrentClient  DownloadComplete_Test:vector  ETV
attr source BitTorrentClient_DownloadComplete_Test
attr title "Descargas completas (prueba), vector"
67	44353 67 167 238001274 36001 36232.189736191019 2 36001 36232.189736191 72233.189736191 2608843574.0793
vector 69  BasicTopology.peer[34].bitTorrentApp.bitTorrentClient  DownloadComplete_Test:vector  ETV
attr source BitTorrentClient_DownloadComplete_Test
attr title "Descargas completas (prueba), vector"
69	44420 66 168 204815986 36001 36184.34829997253 2 36001 36184.348299973 72185.348299973 2605379062.8938
vector 71  BasicTopology.peer[35].bitTorrentApp.bitTorrentClient  DownloadComplete_Test:vector  ETV
attr source BitTorrentClient_DownloadComplete_Test
attr title "Descargas completas (prueba), vector"
71	44486 66 169 234644732 36001 36224.37935800412 2 36001 36224.379358004 72225.379358004 2608277660.8726
vector 73  BasicTopology.peer[36].bitTorrentApp.bitTorrentClient  DownloadComplete_Test:vector  ETV
attr source BitTorrentClient_DownloadComplete_Test
attr title "Descargas completas (prueba), vector"
73	44552 67 170 236348759 36001 36227.845266484571 2 36001 36227.845266485 72228.845266485 2608528773.6524
vector 75  BasicTopology.peer[37].bitTorrentApp.bitTorrentClient  DownloadComplete_Test:vector  ETV
attr source BitTorrentClient_DownloadComplete_Test
attr title "Descargas completas (prueba), vector"
75	44619 67 171 215447661 36001 36197.403901943702 2 36001 36197.403901944 72198.403901944 2606324050.2405
vector 77  BasicTopology.peer[38].bitTorrentApp.bitTorrentClient  DownloadComplete_Test:vector  ETV
attr source BitTorrentClient_DownloadComplete_Test
attr title "Descargas completas (prueba), vector"
77	44686 67 172 236185546 36001 36227.157712414719 2 36001 36227.157712415 72228.157712415 2608478956.9202
vector 79  BasicTopology.peer[39].bitTorrentApp.bitTorrentClient  DownloadComplete_Test:vector  ETV
attr source BitTorrentClient_DownloadComplete_Test
attr title "Descargas completas (prueba), vector"
79	44753 67 173 205251673 36001 36184.895169755373 2 36001 36184.895169755 72185.895169755 2605418639.4462
vector 81  BasicTopology.peer[40].bitTorrentApp.bitTorrentClient  DownloadComplete_Test:vector  ETV
attr source BitTorrentClient_DownloadComplete_Test
attr title "Descargas completas (prueba), vector"
81	44820 66 174 201860881 36001 36180.73085266561 2 36001 36180.730852666 72181.730852666 2605117286.0331
vector 83  BasicTopology.peer[41].bitTorrentApp.bitTorrentClient  DownloadComplete_Test:vector  ETV
attr source BitTorrentClient_DownloadComplete_Test
attr title "Descargas completas (prueba), vector"
83	44886 67 175 220968278 36001 36203.825698806997 2 36001 36203.825698807 72204.825698807 2606788996.2296
vector 85  BasicTopology.peer[42].bitTorrentApp.bitTorrentClient  DownloadComplete_Test:vector  ETV
attr source BitTorrentClient_DownloadComplete_Test
attr title "Descargas completas (prueba), vector"
85	44953 67 176 145378731 36001 36125.063316075357 2 36001 36125.063316075 72126.063316075 2601092200.5904
vector 87  BasicTopology.peer[43].bitTorrentApp.bitTorrentClient  DownloadComplete_Test:vector  ETV
attr source BitTorrentClient_DownloadComplete_Test
attr title "Descargas completas (prueba), vector"
87	45020 66 177 194602397 36001 36172.78113928776 2 36001 36172.781139288 72173.781139288 2604542096.3508
vector 89  BasicTopology.peer[44].bitTorrentApp.bitTorrentClient  DownloadComplete_Test:vector  ETV
attr source BitTorrentClient_DownloadComplete_Test
attr title "Descargas completas (prueba), vector"
89	45086 66 178 211894314 36001 36192.93362617722 2 36001 36192.933626177 72193.933626177 2606000445.4689
vector 91  BasicTopology.peer[45].bitTorrentApp.bitTorrentClient  DownloadComplete_Test:vector  ETV
attr source BitTorrentClient_DownloadComplete_Test
attr title "Descargas completas (prueba), vector"
91	45152 67 179 218342680 36001 36200.584190184343 2 36001 36200.584190184 72201.584190184 2606554296.7106
vector 93  BasicTopology.peer[46].bitTorrentApp.bitTorrentClient  DownloadComplete_Test:vector  ETV
attr source BitTorrentClient_DownloadComplete_Test
attr title "Descargas completas (prueba), vector"
93	45219 67 180 231856051 36001 36219.300810732098 2 36001 36219.300810732 72220.300810732 2607909752.2183
vector 95  BasicTopology.peer[47].bitTorrentApp.bitTorrentClient  DownloadComplete_Test:vector  ETV
attr source BitTorrentClient_DownloadComplete_Test
attr title "Descargas completas (prueba), vector"
95	45286 67 181 229734275 36001 36216.034839933454 2 36001 36216.034839933 72217.034839933 2607673180.5272
vector 97  BasicTopology.peer[48].bitTorrentApp.bitTorrentClient  DownloadComplete_Test:vector  ETV
attr source BitTorrentClient_DownloadComplete_Test
attr title "Descargas completas (prueba), vector"
97	45353 67 182 224548411 36001 36208.931657076139 2 36001 36208.931657076 72209.931657076 2607158732.7468
vector 99  BasicTopology.peer[49].bitTorrentApp.bitTorrentClient  DownloadComplete_Test:vector  ETV
attr source BitTorrentClient_DownloadComplete_Test
attr title "Descargas completas (prueba), vector"
99	45420 67 183 229267247 36001 36215.386845710589 2 36001 36215.386845711 72216.386845711 2607626245.3845
vector 1633  BasicTopology.peer[0].bitTorrentApp.bitTorrentClient.contentManager_51  TotalBytesUploaded:vector  ETV
attr source ContentManager_TotalBytesUploaded
attr title "Total of Bytes Uploaded, vector"
attr unit B
1633	45487 12151 894687 178068488 36001.703430884166 36156.187398312856 300 32768 9830400 1479475200 9.7120484851712e+15
vector 1712  BasicTopology.peer[10].bitTorrentApp.bitTorrentClient.contentManager_51  TotalBytesDownloaded:vector  ETV
attr source ContentManager_TotalBytesDownloaded
attr title "Total of Bytes Downloaded, vector"
attr unit B
1712	135532 3894 1474342 217366441 36002.966382497392 36199.379618173583 96 32768 3145728 152567808 3.2162433099366e+14
vector 1888  BasicTopology.peer[32].bitTorrentApp.bitTorrentClient.contentManager_51  TotalBytesDownloaded:vector  ETV
attr source ContentManager_TotalBytesDownloaded
attr title "Total of Bytes Downloaded, vector"
attr unit B
1888	317134 3909 2992730 183522418 36005.69978421275 36161.517177665299 96 32768 3145728 152567808 3.2162433099366e+14
vector 1976  BasicTopology.peer[43].bitTorrentApp.bitTorrentClient.contentManager_51  TotalBytesDownloaded:vector  ETV
attr source ContentManager_TotalBytesDownloaded
attr title "Total of Bytes Downloaded, vector"
attr unit B
1976	411530 3921 3179576 194602397 36006.103476736424 36172.78113928776 96 32768 3145728 152567808 3.2162433099366e+14
vector 1887  BasicTopology.peer[32].bitTorrentApp.bitTorrentClient.contentManager_51  PiecesDownloaded:vector  ETV
attr source ContentManager_PieceDownloaded
attr title "Pieces Downloaded, vector"
1887	316708 426 3301315 183522418 36006.426931451071 36161.517177665299 12 0 11 66 506
vector 1889  BasicTopology.peer[32].bitTorrentApp.bitTorrentClient.contentManager_51  TotalBytesUploaded:vector  ETV
attr source ContentManager_TotalBytesUploaded
attr title "Total of Bytes Uploaded, vector"
attr unit B
1889	321043 9840 3376726 183679911 36006.586693125443 36161.688639547154 241 32768 7897088 955547648 5.0411330380759e+15
vector 1696  BasicTopology.peer[8].bitTorrentApp.bitTorrentClient.contentManager_51  TotalBytesDownloaded:vector  ETV
attr source ContentManager_TotalBytesDownloaded
attr title "Total of Bytes Downloaded, vector"
attr unit B
1696	116141 3922 3489761 179437347 36006.765397201414 36157.559867448192 96 32768 3145728 152567808 3.2162433099366e+14
vector 1952  BasicTopology.peer[40].bitTorrentApp.bitTorrentClient.contentManager_51  TotalBytesDownloaded:vector  ETV
attr source ContentManager_TotalBytesDownloaded
attr title "Total of Bytes Downloaded, vector"
attr unit B
1952	378946 3902 3507701 201860881 36006.787010300048 36180.73085266561 96 32768 3145728 152567808 3.2162433099366e+14
vector 1711  BasicTopology.peer[10].bitTorrentApp.bitTorrentClient.contentManager_51  PiecesDownloaded:vector  ETV
attr source ContentManager_PieceDownloaded
attr title "Pieces Downloaded, vector"
1711	135109 423 3981827 217366441 36007.473855137993 36199.379618173583 12 0 11 66 506
vector 1713  BasicTopology.peer[10].bitTorrentApp.bitTorrentClient.contentManager_51  TotalBytesUploaded:vector  ETV
attr source ContentManager_TotalBytesUploaded
attr title "Total of Bytes Uploaded, vector"
attr unit B
1713	139426 9634 4032178 236630757 36007.553359845374 36228.250938306865 237 32768 7766016 924155904 4.7947672715264e+15
vector 1720  BasicTopology.peer[11].bitTorrentApp.bitTorrentClient.contentManager_51  TotalBytesDownloaded:vector  ETV
attr source ContentManager_TotalBytesDownloaded
attr title "Total of Bytes Downloaded, vector"
attr unit B
1720	149486 3925 4999549 189826868 36008.934034956132 36167.543388882454 96 32768 3145728 152567808 3.2162433099366e+14
vector 1736  BasicTopology.peer[13].bitTorrentApp.bitTorrentClient.contentManager_51  TotalBytesDownloaded:vector  ETV
attr source ContentManager_TotalBytesDownloaded
attr title "Total of Bytes Downloaded, vector"
attr unit B
1736	170849 3931 5086523 218459351 36009.118844269061 36200.710571380081 96 32768 3145728 152567808 3.2162433099366e+14
vector 1752  BasicTopology.peer[15].bitTorrentApp.bitTorrentClient.contentManager_51  TotalBytesDownloaded:vector  ETV
attr source ContentManager_TotalBytesDownloaded
attr title "Total of Bytes Downloaded, vector"
attr unit B
1752	191328 3945 5156039 233471872 36009.337893736395 36222.054070163812 96 32768 3145728 152567808 3.2162433099366e+14
vector 1728  BasicTopology.peer[12].bitTorrentApp.bitTorrentClient.contentManager_51  TotalBytesDownloaded:vector  ETV
attr source ContentManager_TotalBytesDownloaded
attr title "Total of Bytes Downloaded, vector"
attr unit B
1728	159039 3889 5480249 165582043 36009.760552208149 36143.894383935878 96 32768 3145728 152567808 3.2162433099366e+14
vector 1951  BasicTopology.peer[40].bitTorrentApp.bitTorrentClient.contentManager_51  PiecesDownloaded:vector  ETV
attr source ContentManager_PieceDownloaded
attr title "Pieces Downloaded, vector"
1951	378522 424 5484547 201860881 36009.766578804206 36180.73085266561 12 0 11 66 506
vector 1953  BasicTopology.peer[40].bitTorrentApp.bitTorrentClient.contentManager_51  TotalBytesUploaded:vector  ETV
attr source ContentManager_TotalBytesUploaded
attr title "Total of Bytes Uploaded, vector"
attr unit B
1953	382848 8116 5514994 232591430 36009.803057373681 36220.408620415628 199 32768 6520832 652083200 2.8418724855808e+15
vector 1695  BasicTopology.peer[8].bitTorrentApp.bitTorrentClient.contentManager_51  PiecesDownloaded:vector  ETV
attr source ContentManager_PieceDownloaded
attr title "Pieces Downloaded, vector"
1695	115715 426 6540128 179437347 36011.012122878519 36157.559867448192 12 0 11 66 506
vector 1697  BasicTopology.peer[8].bitTorrentApp.bitTorrentClient.contentManager_51  TotalBytesUploaded:vector  ETV
attr source ContentManager_TotalBytesUploaded
attr title "Total of Bytes Uploaded, vector"
attr unit B
1697	120063 6747 6594941 148489716 36011.087498829627 36127.83058517335 166 32768 5439488 454197248 1.6520280318935e+15
vector 1672  BasicTopology.peer[5].bitTorrentApp.bitTorrentClient.contentManager_51  TotalBytesDownloaded:vector  ETV
attr source ContentManager_TotalBytesDownloaded
attr title "Total of Bytes Downloaded, vector"
attr unit B
1672	91642 3926 6755430 237200665 36011.261468833734 36229.053665255534 96 32768 3145728 152567808 3.2162433099366e+14
vector 1735  BasicTopology.peer[13].bitTorrentApp.bitTorrentClient.contentManager_51  PiecesDownloaded:vector  ETV
attr source ContentManager_PieceDownloaded
attr title "Pieces Downloaded, vector"
1735	170421 428 6843212 218459351 36011.351144417192 36200.710571380081 12 0 11 66 506
vector 1737  BasicTopology.peer[13].bitTorrentApp.bitTorrentClient.contentManager_51  TotalBytesUploaded:vector  ETV
attr source ContentManager_TotalBytesUploaded
attr title "Total of Bytes Uploaded, vector"
attr unit B
1737	174780 6702 6852987 218520261 36011.361267952934 36200.780582286757 163 32768 5341184 437977088 1.5643280209347e+15
vector 1704  BasicTopology.peer[9].bitTorrentApp.bitTorrentClient.contentManager_51  TotalBytesDownloaded:vector  ETV
attr source ContentManager_TotalBytesDownloaded
attr title "Total of Bytes Downloaded, vector"
attr unit B
1704	127237 3922 7124771 185285937 36011.639952080393 36163.310500161809 96 32768 3145728 152567808 3.2162433099366e+14
vector 1768  BasicTopology.peer[17].bitTorrentApp.bitTorrentClient.contentManager_51  TotalBytesDownloaded:vector  ETV
attr source ContentManager_TotalBytesDownloaded
attr title "Total of Bytes Downloaded, vector"
attr unit B
1768	205687 3950 7544748 235001859 36012.26114725325 36224.976354613428 96 32768 3145728 152567808 3.2162433099366e+14
vector 1727  BasicTopology.peer[12].bitTorrentApp.bitTorrentClient.contentManager_51  PiecesDownloaded:vector  ETV
attr source ContentManager_PieceDownloaded
attr title "Pieces Downloaded, vector"
1727	158617 422 7580423 165582043 36012.309388478495 36143.894383935878 12 0 11 66 506
vector 1729  BasicTopology.peer[12].bitTorrentApp.bitTorrentClient.contentManager_51  TotalBytesUploaded:vector  ETV
attr source ContentManager_TotalBytesUploaded
attr title "Total of Bytes Uploaded, vector"
attr unit B
1729	162928 7493 7633773 139784557 36012.363109890496 36120.143556864207 184 32768 6029312 557711360 2.247835558871e+15
vector 1975  BasicTopology.peer[43].bitTorrentApp.bitTorrentClient.contentManager_51  PiecesDownloaded:vector  ETV
attr source ContentManager_PieceDownloaded
attr title "Pieces Downloaded, vector"
1975	411104 426 7639845 194602397 36012.373804166162 36172.78113928776 12 0 11 66 506
vector 1977  BasicTopology.peer[43].bitTorrentApp.bitTorrentClient.contentManager_51  TotalBytesUploaded:vector  ETV
attr source ContentManager_TotalBytesUploaded
attr title "Total of Bytes Uploaded, vector"
attr unit B
1977	415451 9698 7709306 201395506 36012.444415753259 36180.228621731682 237 32768 7766016 924155904 4.7947672715264e+15
vector 1680  BasicTopology.peer[6].bitTorrentApp.bitTorrentClient.contentManager_51  TotalBytesDownloaded:vector  ETV
attr source ContentManager_TotalBytesDownloaded
attr title "Total of Bytes Downloaded, vector"
attr unit B
1680	99929 4262 7788864 231927618 36012.600997264054 36219.396906294422 104 32768 3407872 178913280 4.0842991501312e+14
vector 1719  BasicTopology.peer[11].bitTorrentApp.bitTorrentClient.contentManager_51  PiecesDownloaded:vector  ETV
attr source ContentManager_PieceDownloaded
attr title "Pieces Downloaded, vector"
1719	149060 426 7790706 189826868 36012.603528216154 36167.543388882454 12 0 11 66 506
vector 1721  BasicTopology.peer[11].bitTorrentApp.bitTorrentClient.contentManager_51  TotalBytesUploaded:vector  ETV
attr source ContentManager_TotalBytesUploaded
attr title "Total of Bytes Uploaded, vector"
attr unit B
1721	153411 5206 7812389 172512938 36012.632227275087 36150.579664750801 128 32768 4194304 270532608 7.5941893740954e+14
vector 1784  BasicTopology.peer[19].bitTorrentApp.bitTorrentClient.contentManager_51  TotalBytesDownloaded:vector  ETV
attr source ContentManager_TotalBytesDownloaded
attr title "Total of Bytes Downloaded, vector"
attr unit B
1784	217010 4604 8581122 203857714 36013.394055648511 36183.261014682041 112 32768 3670016 207355904 5.095978696704e+14
vector 1664  BasicTopology.peer[4].bitTorrentApp.bitTorrentClient.contentManager_51  TotalBytesDownloaded:vector  ETV
attr source ContentManager_TotalBytesDownloaded
attr title "Total of Bytes Downloaded, vector"
attr unit B
1664	85697 3940 8709352 228107719 36013.571054983864 36213.770610025847 96 32768 3145728 152567808 3.2162433099366e+14
vector 1648  BasicTopology.peer[2].bitTorrentApp.bitTorrentClient.contentManager_51  TotalBytesDownloaded:vector  ETV
attr source ContentManager_TotalBytesDownloaded
attr title "Total of Bytes Downloaded, vector"
attr unit B
1648	65988 3892 8730885 59497234 36013.589826478558 36055.064082585066 96 32768 3145728 152567808 3.2162433099366e+14
vector 1640  BasicTopology.peer[1].bitTorrentApp.bitTorrentClient.contentManager_51  TotalBytesDownloaded:vector  ETV
attr source ContentManager_TotalBytesDownloaded
attr title "Total of Bytes Downloaded, vector"
attr unit B
1640	58063 3925 8909242 224895565 36013.787069836726 36209.440841724343 96 32768 3145728 152567808 3.2162433099366e+14
vector 1656  BasicTopology.peer[3].bitTorrentApp.bitTorrentClient.contentManager_51  TotalBytesDownloaded:vector  ETV
attr source ContentManager_TotalBytesDownloaded
attr title "Total of Bytes Downloaded, vector"
attr unit B
1656	77783 3940 9006810 195646823 36013.904394936585 36173.895541478109 96 32768 3145728 152567808 3.2162433099366e+14
vector 1840  BasicTopology.peer[26].bitTorrentApp.bitTorrentClient.contentManager_51  TotalBytesDownloaded:vector  ETV
attr source ContentManager_TotalBytesDownloaded
attr title "Total of Bytes Downloaded, vector"
attr unit B
1840	271299 3918 9265766 237816201 36014.165994824376 36230.166359576404 96 32768 3145728 152567808 3.2162433099366e+14
vector 1679  BasicTopology.peer[6].bitTorrentApp.bitTorrentClient.contentManager_51  PiecesDownloaded:vector  ETV
attr source ContentManager_PieceDownloaded
attr title "Pieces Downloaded, vector"
1679	99503 426 9347892 231927618 36014.240228660469 36219.396906294422 12 0 11 66 506
vector 1655  BasicTopology.peer[3].bitTorrentApp.bitTorrentClient.contentManager_51  PiecesDownloaded:vector  ETV
attr source ContentManager_PieceDownloaded
attr title "Pieces Downloaded, vector"
1655	77356 427 9419873 195646823 36014.305008306632 36173.895541478109 12 0 11 66 506
vector 1657  BasicTopology.peer[3].bitTorrentApp.bitTorrentClient.contentManager_51  TotalBytesUploaded:vector  ETV
attr source ContentManager_TotalBytesUploaded
attr title "Total of Bytes Uploaded, vector"
attr unit B
1657	81723 3544 9449053 111876876 36014.326655569931 36097.882426087518 88 32768 2883584 128319488 2.4808160598426e+14
vector 1944  BasicTopology.peer[39].bitTorrentApp.bitTorrentClient.contentManager_51  TotalBytesDownloaded:vector  ETV
attr source ContentManager_TotalBytesDownloaded
attr title "Total of Bytes Downloaded, vector"
attr unit B
1944	372965 3947 9542765 205251673 36014.396127408901 36184.895169755373 96 32768 3145728 152567808 3.2162433099366e+14
vector 1783  BasicTopology.peer[19].bitTorrentApp.bitTorrentClient.contentManager_51  PiecesDownloaded:vector  ETV
attr source ContentManager_PieceDownloaded
attr title "Pieces Downloaded, vector"
1783	216581 429 9965659 203857714 36014.752629128114 36183.261014682041 12 0 11 66 506
vector 1688  BasicTopology.peer[7].bitTorrentApp.bitTorrentClient.contentManager_51  TotalBytesDownloaded:vector  ETV
attr source ContentManager_TotalBytesDownloaded
attr title "Total of Bytes Downloaded, vector"
attr unit B
1688	108855 3946 10097930 225676985 36014.885810259806 36210.462248732098 96 32768 3145728 152567808 3.2162433099366e+14
vector 1767  BasicTopology.peer[17].bitTorrentApp.bitTorrentClient.contentManager_51  PiecesDownloaded:vector  ETV
attr source ContentManager_PieceDownloaded
attr title "Pieces Downloaded, vector"
1767	205257 430 10338775 235001859 36015.095657885848 36224.976354613428 12 0 11 66 506
vector 1769  BasicTopology.peer[17].bitTorrentApp.bitTorrentClient.contentManager_51  TotalBytesUploaded:vector  ETV
attr source ContentManager_TotalBytesUploaded
attr title "Total of Bytes Uploaded, vector"
attr unit B
1769	209637 1601 10385850 16070497 36015.1391031567 36020.499289876592 40 32768 1310720 26869760 23772643983360