file 471964 1593887685                                          
version 2
run Test-19-20200525-12:24:18-6808
attr configname Test
attr datetime 20200525-12:24:18
attr experiment "\"Simulation Test\""
attr inifile BasicConfig.ini
attr iterationvars ""
attr iterationvars2 $repetition=19
attr measurement "\"Peers: $peers, Rate: $rate\""
attr network BasicTopology
attr processid 6808
attr repetition 19
attr replication #19
attr resultdir results
attr runnumber 19
attr seedset 19
vector 3  BasicTopology.peer[1].bitTorrentApp.bitTorrentClient  DownloadComplete_Test:vector  ETV
attr source BitTorrentClient_DownloadComplete_Test
attr title "Descargas completas (prueba), vector"
3	41776 65 135 217882983 36001 36207.844847312115 2 36001 36207.844847312 72208.844847312 2607080029.487
vector 5  BasicTopology.peer[2].bitTorrentApp.bitTorrentClient  DownloadComplete_Test:vector  ETV
attr source BitTorrentClient_DownloadComplete_Test
attr title "Descargas completas (prueba), vector"
5	41841 65 136 219513897 36001 36210.036821084482 2 36001 36210.036821084 72211.036821084 2607238767.5843
vector 7  BasicTopology.peer[3].bitTorrentApp.bitTorrentClient  DownloadComplete_Test:vector  ETV
attr source BitTorrentClient_DownloadComplete_Test
attr title "Descargas completas (prueba), vector"
7	41906 65 137 214923167 36001 36203.814979095062 2 36001 36203.814979095 72204.814979095 2606788220.0405
vector 9  BasicTopology.peer[4].bitTorrentApp.bitTorrentClient  DownloadComplete_Test:vector  ETV
attr source BitTorrentClient_DownloadComplete_Test
attr title "Descargas completas (prueba), vector"
9	41971 63 138 216912701 36001 36206.506300600261 2 36001 36206.5063006 72207.5063006 2606983099.4954
vector 11  BasicTopology.peer[5].bitTorrentApp.bitTorrentClient  DownloadComplete_Test:vector  ETV
attr source BitTorrentClient_DownloadComplete_Test
attr title "Descargas completas (prueba), vector"
11	42034 67 139 176263854 36001 36158.615617438336 2 36001 36158.615617438 72159.615617438 2603517484.3696
vector 13  BasicTopology.peer[6].bitTorrentApp.bitTorrentClient  DownloadComplete_Test:vector  ETV
attr source BitTorrentClient_DownloadComplete_Test
attr title "Descargas completas (prueba), vector"
13	42101 67 140 214544986 36001 36203.263074478283 2 36001 36203.263074478 72204.263074478 2606748258.2399
vector 15  BasicTopology.peer[7].bitTorrentApp.bitTorrentClient  DownloadComplete_Test:vector  ETV
attr source BitTorrentClient_DownloadComplete_Test
attr title "Descargas completas (prueba), vector"
15	42168 67 141 224045499 36001 36216.670754317262 2 36001 36216.670754317 72217.670754317 2607719241.5266
vector 17  BasicTopology.peer[8].bitTorrentApp.bitTorrentClient  DownloadComplete_Test:vector  ETV
attr source BitTorrentClient_DownloadComplete_Test
attr title "Descargas completas (prueba), vector"
17	42235 67 142 234813675 36001 36233.723221439384 2 36001 36233.723221439 72234.723221439 2608954699.4878
vector 19  BasicTopology.peer[9].bitTorrentApp.bitTorrentClient  DownloadComplete_Test:vector  ETV
attr source BitTorrentClient_DownloadComplete_Test
attr title "Descargas completas (prueba), vector"
19	42302 67 143 232535899 36001 36229.486739364114 2 36001 36229.486739364 72230.486739364 2608647710.3978
vector 21  BasicTopology.peer[10].bitTorrentApp.bitTorrentClient  DownloadComplete_Test:vector  ETV
attr source BitTorrentClient_DownloadComplete_Test
attr title "Descargas completas (prueba), vector"
21	42369 67 144 220390431 36001 36211.208638377297 2 36001 36211.208638377 72212.208638377 2607323632.0521
vector 23  BasicTopology.peer[11].bitTorrentApp.bitTorrentClient  DownloadComplete_Test:vector  ETV
attr source BitTorrentClient_DownloadComplete_Test
attr title "Descargas completas (prueba), vector"
23	42436 67 145 213235284 36001 36201.552416083124 2 36001 36201.552416083 72202.552416083 2606624398.3344
vector 25  BasicTopology.peer[12].bitTorrentApp.bitTorrentClient  DownloadComplete_Test:vector  ETV
attr source BitTorrentClient_DownloadComplete_Test
attr title "Descargas completas (prueba), vector"
25	42503 67 146 174965919 36001 36157.312986688418 2 36001 36157.312986688 72158.312986688 2603423283.4173
vector 27  BasicTopology.peer[13].bitTorrentApp.bitTorrentClient  DownloadComplete_Test:vector  ETV
attr source BitTorrentClient_DownloadComplete_Test
attr title "Descargas completas (prueba), vector"
27	42570 67 147 220456210 36001 36211.315628666566 2 36001 36211.315628667 72212.315628667 2607331380.5589
vector 29  BasicTopology.peer[14].bitTorrentApp.bitTorrentClient  DownloadComplete_Test:vector  ETV
attr source BitTorrentClient_DownloadComplete_Test
attr title "Descargas completas (prueba), vector"
29	42637 67 148 230047600 36001 36225.470874764625 2 36001 36225.470874765 72226.470874765 2608356741.0984
vector 31  BasicTopology.peer[15].bitTorrentApp.bitTorrentClient  DownloadComplete_Test:vector  ETV
attr source BitTorrentClient_DownloadComplete_Test
attr title "Descargas completas (prueba), vector"
31	42704 67 149 208361827 36001 36195.463720294204 2 36001 36195.463720294 72196.463720294 2606183594.9271
vector 33  BasicTopology.peer[16].bitTorrentApp.bitTorrentClient  DownloadComplete_Test:vector  ETV
attr source BitTorrentClient_DownloadComplete_Test
attr title "Descargas completas (prueba), vector"
33	42771 67 150 235042585 36001 36234.477211759032 2 36001 36234.477211759 72235.477211759 2609009339.8095
vector 35  BasicTopology.peer[17].bitTorrentApp.bitTorrentClient  DownloadComplete_Test:vector  ETV
attr source BitTorrentClient_DownloadComplete_Test
attr title "Descargas completas (prueba), vector"
35	42838 66 151 189946738 36001 36173.170134389872 2 36001 36173.17013439 72174.17013439 2604570238.5715
vector 37  BasicTopology.peer[18].bitTorrentApp.bitTorrentClient  DownloadComplete_Test:vector  ETV
attr source BitTorrentClient_DownloadComplete_Test
attr title "Descargas completas (prueba), vector"
37	42904 66 152 218684261 36001 36208.97102983344 2 36001 36208.971029833 72209.971029833 2607161584.0393
vector 39  BasicTopology.peer[19].bitTorrentApp.bitTorrentClient  DownloadComplete_Test:vector  ETV
attr source BitTorrentClient_DownloadComplete_Test
attr title "Descargas completas (prueba), vector"
39	42970 67 153 195772014 36001 36180.098993706387 2 36001 36180.098993706 72181.098993706 2605071564.1944
vector 41  BasicTopology.peer[20].bitTorrentApp.bitTorrentClient  DownloadComplete_Test:vector  ETV
attr source BitTorrentClient_DownloadComplete_Test
attr title "Descargas completas (prueba), vector"
41	43037 66 154 185906289 36001 36168.66042361337 2 36001 36168.660423613 72169.660423613 2604243997.8386
vector 43  BasicTopology.peer[21].bitTorrentApp.bitTorrentClient  DownloadComplete_Test:vector  ETV
attr source BitTorrentClient_DownloadComplete_Test
attr title "Descargas completas (prueba), vector"
43	43103 67 155 204423436 36001 36190.487518924432 2 36001 36190.487518924 72191.487518924 2605823387.8574
vector 45  BasicTopology.peer[22].bitTorrentApp.bitTorrentClient  DownloadComplete_Test:vector  ETV
attr source BitTorrentClient_DownloadComplete_Test
attr title "Descargas completas (prueba), vector"
45	43170 66 156 214624998 36001 36203.39385142742 2 36001 36203.393851427 72204.393851427 2606757727.3615
vector 47  BasicTopology.peer[23].bitTorrentApp.bitTorrentClient  DownloadComplete_Test:vector  ETV
attr source BitTorrentClient_DownloadComplete_Test
attr title "Descargas completas (prueba), vector"
47	43236 66 157 225629898 36001 36219.03621794702 2 36001 36219.036217947 72220.036217947 2607890585.557
vector 49  BasicTopology.peer[24].bitTorrentApp.bitTorrentClient  DownloadComplete_Test:vector  ETV
attr source BitTorrentClient_DownloadComplete_Test
attr title "Descargas completas (prueba), vector"
49	43302 67 158 214674413 36001 36203.498721371206 2 36001 36203.498721371 72204.498721371 2606765320.6683
vector 51  BasicTopology.peer[25].bitTorrentApp.bitTorrentClient  DownloadComplete_Test:vector  ETV
attr source BitTorrentClient_DownloadComplete_Test
attr title "Descargas completas (prueba), vector"
51	43369 67 159 224771652 36001 36217.757137820881 2 36001 36217.757137821 72218.757137821 2607797933.0942
vector 53  BasicTopology.peer[26].bitTorrentApp.bitTorrentClient  DownloadComplete_Test:vector  ETV
attr source BitTorrentClient_DownloadComplete_Test
attr title "Descargas completas (prueba), vector"
53	43436 67 160 231961936 36001 36228.353627973238 2 36001 36228.353627973 72229.353627973 2608565607.5935
vector 55  BasicTopology.peer[27].bitTorrentApp.bitTorrentClient  DownloadComplete_Test:vector  ETV
attr source BitTorrentClient_DownloadComplete_Test
attr title "Descargas completas (prueba), vector"
55	43503 67 161 213387511 36001 36201.737122606995 2 36001 36201.737122607 72202.737122607 2606637771.6943
vector 57  BasicTopology.peer[28].bitTorrentApp.bitTorrentClient  DownloadComplete_Test:vector  ETV
attr source BitTorrentClient_DownloadComplete_Test
attr title "Descargas completas (prueba), vector"
57	43570 66 162 217268865 36001 36206.96764985659 2 36001 36206.967649857 72207.967649857 2607016507.3978
vector 59  BasicTopology.peer[29].bitTorrentApp.bitTorrentClient  DownloadComplete_Test:vector  ETV
attr source BitTorrentClient_DownloadComplete_Test
attr title "Descargas completas (prueba), vector"
59	43636 67 163 238902149 36001 36246.449136890695 2 36001 36246.449136891 72247.449136891 2609877076.0332
vector 61  BasicTopology.peer[30].bitTorrentApp.bitTorrentClient  DownloadComplete_Test:vector  ETV
attr source BitTorrentClient_DownloadComplete_Test
attr title "Descargas completas (prueba), vector"
61	43703 67 164 200718100 36001 36185.826124919158 2 36001 36185.826124919 72186.826124919 2605486013.3429
vector 63  BasicTopology.peer[31].bitTorrentApp.bitTorrentClient  DownloadComplete_Test:vector  ETV
attr source BitTorrentClient_DownloadComplete_Test
attr title "Descargas completas (prueba), vector"
63	43770 67 165 207800332 36001 36194.790290624068 2 36001 36194.790290624 72195.790290624 2606134845.1822
vector 65  BasicTopology.peer[32].bitTorrentApp.bitTorrentClient  DownloadComplete_Test:vector  ETV
attr source BitTorrentClient_DownloadComplete_Test
attr title "Descargas completas (prueba), vector"
65	43837 67 166 203207992 36001 36188.869478493969 2 36001 36188.869478494 72189.869478494 2605706275.1315
vector 67  BasicTopology.peer[33].bitTorrentApp.bitTorrentClient  DownloadComplete_Test:vector  ETV
attr source BitTorrentClient_DownloadComplete_Test
attr title "Descargas completas (prueba), vector"
67	43904 67 167 210870067 36001 36198.653297601628 2 36001 36198.653297602 72199.653297602 2606414501.56
vector 69  BasicTopology.peer[34].bitTorrentApp.bitTorrentClient  DownloadComplete_Test:vector  ETV
attr source BitTorrentClient_DownloadComplete_Test
attr title "Descargas completas (prueba), vector"
69	43971 67 168 240423326 36001 36301.370011657001 2 36001 36301.370011657 72302.370011657 2613861465.7232
vector 71  BasicTopology.peer[35].bitTorrentApp.bitTorrentClient  DownloadComplete_Test:vector  ETV
attr source BitTorrentClient_DownloadComplete_Test
attr title "Descargas completas (prueba), vector"
71	44038 67 169 211062718 36001 36198.857543875383 2 36001 36198.857543875 72199.857543875 2606429288.4818
vector 73  BasicTopology.peer[36].bitTorrentApp.bitTorrentClient  DownloadComplete_Test:vector  ETV
attr source BitTorrentClient_DownloadComplete_Test
attr title "Descargas completas (prueba), vector"
73	44105 66 170 237965716 36001 36242.12971471085 2 36001 36242.129714711 72243.129714711 2609563967.2579
vector 75  BasicTopology.peer[37].bitTorrentApp.bitTorrentClient  DownloadComplete_Test:vector  ETV
attr source BitTorrentClient_DownloadComplete_Test
attr title "Descargas completas (prueba), vector"
75	44171 67 171 198007238 36001 36182.570224674027 2 36001 36182.570224674 72183.570224674 2605250389.0635
vector 77  BasicTopology.peer[38].bitTorrentApp.bitTorrentClient  DownloadComplete_Test:vector  ETV
attr source BitTorrentClient_DownloadComplete_Test
attr title "Descargas completas (prueba), vector"
77	44238 67 172 192273128 36001 36176.024005062702 2 36001 36176.024005063 72177.024005063 2604776713.8149
vector 79  BasicTopology.peer[39].bitTorrentApp.bitTorrentClient  DownloadComplete_Test:vector  ETV
attr source BitTorrentClient_DownloadComplete_Test
attr title "Descargas completas (prueba), vector"
79	44305 67 173 235466920 36001 36235.139562514047 2 36001 36235.139562514 72236.139562514 2609057340.1149
vector 81  BasicTopology.peer[40].bitTorrentApp.bitTorrentClient  DownloadComplete_Test:vector  ETV
attr source BitTorrentClient_DownloadComplete_Test
attr title "Descargas completas (prueba), vector"
81	44372 67 174 214128909 36001 36202.680248487716 2 36001 36202.680248488 72203.680248488 2606706058.1743
vector 83  BasicTopology.peer[41].bitTorrentApp.bitTorrentClient  DownloadComplete_Test:vector  ETV
attr source BitTorrentClient_DownloadComplete_Test
attr title "Descargas completas (prueba), vector"
83	44439 67 175 223696055 36001 36216.119428478904 2 36001 36216.119428479 72217.119428479 2607679307.4579
vector 85  BasicTopology.peer[42].bitTorrentApp.bitTorrentClient  DownloadComplete_Test:vector  ETV
attr source BitTorrentClient_DownloadComplete_Test
attr title "Descargas completas (prueba), vector"
85	44506 67 176 177676084 36001 36160.070055465101 2 36001 36160.070055465 72161.070055465 2603622667.4161
vector 87  BasicTopology.peer[43].bitTorrentApp.bitTorrentClient  DownloadComplete_Test:vector  ETV
attr source BitTorrentClient_DownloadComplete_Test
attr title "Descargas completas (prueba), vector"
87	44573 67 177 160907731 36001 36143.555072317494 2 36001 36143.555072317 72144.555072317 2602428574.2656
vector 89  BasicTopology.peer[44].bitTorrentApp.bitTorrentClient  DownloadComplete_Test:vector  ETV
attr source BitTorrentClient_DownloadComplete_Test
attr title "Descargas completas (prueba), vector"
89	44640 67 178 226105982 36001 36219.753528798004 2 36001 36219.753528798 72220.753528798 2607942546.6869
vector 91  BasicTopology.peer[45].bitTorrentApp.bitTorrentClient  DownloadComplete_Test:vector  ETV
attr source BitTorrentClient_DownloadComplete_Test
attr title "Descargas completas (prueba), vector"
91	44707 67 179 232344604 36001 36229.199530692185 2 36001 36229.199530692 72230.199530692 2608626899.6347
vector 93  BasicTopology.peer[46].bitTorrentApp.bitTorrentClient  DownloadComplete_Test:vector  ETV
attr source BitTorrentClient_DownloadComplete_Test
attr title "Descargas completas (prueba), vector"
93	44774 67 180 234554449 36001 36233.231737307389 2 36001 36233.231737307 72234.231737307 2608919083.1294
vector 95  BasicTopology.peer[47].bitTorrentApp.bitTorrentClient  DownloadComplete_Test:vector  ETV
attr source BitTorrentClient_DownloadComplete_Test
attr title "Descargas completas (prueba), vector"
95	44841 67 181 188041484 36001 36170.945775116223 2 36001 36170.945775116 72171.945775116 2604409319.2664
vector 97  BasicTopology.peer[48].bitTorrentApp.bitTorrentClient  DownloadComplete_Test:vector  ETV
attr source BitTorrentClient_DownloadComplete_Test
attr title "Descargas completas (prueba), vector"
97	44908 67 182 232262360 36001 36229.068753127373 2 36001 36229.068753127 72230.068753127 2608617423.7188
vector 99  BasicTopology.peer[49].bitTorrentApp.bitTorrentClient  DownloadComplete_Test:vector  ETV
attr source BitTorrentClient_DownloadComplete_Test
attr title "Descargas completas (prueba), vector"
99	44975 64 183 229653022 36001 36224.795120107 2 36001 36224.795120107 72225.795120107 2608307782.4937
vector 1633  BasicTopology.peer[0].bitTorrentApp.bitTorrentClient.contentManager_51  TotalBytesUploaded:vector  ETV
attr source ContentManager_TotalBytesUploaded
attr title "Total of Bytes Uploaded, vector"
attr unit B
1633	45039 12891 1460751 209508102 36002.587566623411 36196.907048409869 318 32768 10420224 1662025728 1.15639406727e+16
vector 1792  BasicTopology.peer[20].bitTorrentApp.bitTorrentClient.contentManager_51  TotalBytesDownloaded:vector  ETV
attr source ContentManager_TotalBytesDownloaded
attr title "Total of Bytes Downloaded, vector"
attr unit B
1792	229706 3859 2786665 185906289 36005.029627269816 36168.66042361337 96 32768 3145728 152567808 3.2162433099366e+14
vector 1832  BasicTopology.peer[25].bitTorrentApp.bitTorrentClient.contentManager_51  TotalBytesDownloaded:vector  ETV
attr source ContentManager_TotalBytesDownloaded
attr title "Total of Bytes Downloaded, vector"
attr unit B
1832	282807 3924 3086606 224771652 36005.661864433942 36217.757137820881 96 32768 3145728 152567808 3.2162433099366e+14
vector 1656  BasicTopology.peer[3].bitTorrentApp.bitTorrentClient.contentManager_51  TotalBytesDownloaded:vector  ETV
attr source ContentManager_TotalBytesDownloaded
attr title "Total of Bytes Downloaded, vector"
attr unit B
1656	78211 3883 3094242 214923167 36005.683065852853 36203.814979095062 96 32768 3145728 152567808 3.2162433099366e+14
vector 1872  BasicTopology.peer[30].bitTorrentApp.bitTorrentClient.contentManager_51  TotalBytesDownloaded:vector  ETV
attr source ContentManager_TotalBytesDownloaded
attr title "Total of Bytes Downloaded, vector"
attr unit B
1872	312776 3918 3239232 200718100 36006.071093397627 36185.826124919158 96 32768 3145728 152567808 3.2162433099366e+14
vector 1791  BasicTopology.peer[20].bitTorrentApp.bitTorrentClient.contentManager_51  PiecesDownloaded:vector  ETV
attr source ContentManager_PieceDownloaded
attr title "Pieces Downloaded, vector"
1791	229292 414 4167785 185906289 36008.585873602457 36168.66042361337 12 0 11 66 506
vector 1793  BasicTopology.peer[20].bitTorrentApp.bitTorrentClient.contentManager_51  TotalBytesUploaded:vector  ETV
attr source ContentManager_TotalBytesUploaded
attr title "Total of Bytes Uploaded, vector"
attr unit B
1793	233565 12908 4269238 231194030 36008.649697086211 36227.243349126883 313 32768 10256384 1610252288 1.1027832117395e+16
vector 1831  BasicTopology.peer[25].bitTorrentApp.bitTorrentClient.contentManager_51  PiecesDownloaded:vector  ETV
attr source ContentManager_PieceDownloaded
attr title "Pieces Downloaded, vector"
1831	282382 425 4598948 224771652 36009.67025690787 36217.757137820881 12 0 11 66 506
vector 1833  BasicTopology.peer[25].bitTorrentApp.bitTorrentClient.contentManager_51  TotalBytesUploaded:vector  ETV
attr source ContentManager_TotalBytesUploaded
attr title "Total of Bytes Uploaded, vector"
attr unit B
1833	286731 4218 4612314 145319907 36009.68311778419 36129.941832539078 104 32768 3407872 178913280 4.0842991501312e+14
vector 1680  BasicTopology.peer[6].bitTorrentApp.bitTorrentClient.contentManager_51  TotalBytesDownloaded:vector  ETV
attr source ContentManager_TotalBytesDownloaded
attr title "Total of Bytes Downloaded, vector"
attr unit B
1680	110119 4261 4666573 214544986 36009.751767713816 36203.263074478283 104 32768 3407872 178913280 4.0842991501312e+14
vector 1871  BasicTopology.peer[30].bitTorrentApp.bitTorrentClient.contentManager_51  PiecesDownloaded:vector  ETV
attr source ContentManager_PieceDownloaded
attr title "Pieces Downloaded, vector"
1871	312350 426 4676633 200718100 36009.765991174912 36185.826124919158 12 0 11 66 506
vector 1873  BasicTopology.peer[30].bitTorrentApp.bitTorrentClient.contentManager_51  TotalBytesUploaded:vector  ETV
attr source ContentManager_TotalBytesUploaded
attr title "Total of Bytes Uploaded, vector"
attr unit B
1873	316694 10063 4712575 115887881 36009.805664329812 36105.349726274523 247 32768 8093696 1003618304 5.4262831566029e+15
vector 1640  BasicTopology.peer[1].bitTorrentApp.bitTorrentClient.contentManager_51  TotalBytesDownloaded:vector  ETV
attr source ContentManager_TotalBytesDownloaded
attr title "Total of Bytes Downloaded, vector"
attr unit B
1640	58355 3924 4743829 217882983 36009.849273372628 36207.844847312115 96 32768 3145728 152567808 3.2162433099366e+14
vector 1655  BasicTopology.peer[3].bitTorrentApp.bitTorrentClient.contentManager_51  PiecesDownloaded:vector  ETV
attr source ContentManager_PieceDownloaded
attr title "Pieces Downloaded, vector"
1655	77791 420 5336146 214923167 36010.674075205472 36203.814979095062 12 0 11 66 506
vector 1657  BasicTopology.peer[3].bitTorrentApp.bitTorrentClient.contentManager_51  TotalBytesUploaded:vector  ETV
attr source ContentManager_TotalBytesUploaded
attr title "Total of Bytes Uploaded, vector"
attr unit B
1657	82094 11803 5347873 222606714 36010.688093923919 36214.733047832785 289 32768 9469952 1373143040 8.684064169001e+15
vector 1648  BasicTopology.peer[2].bitTorrentApp.bitTorrentClient.contentManager_51  TotalBytesDownloaded:vector  ETV
attr source ContentManager_TotalBytesDownloaded
attr title "Total of Bytes Downloaded, vector"
attr unit B
1648	66894 3924 5479378 219513897 36010.888967301646 36210.036821084482 96 32768 3145728 152567808 3.2162433099366e+14
vector 1760  BasicTopology.peer[16].bitTorrentApp.bitTorrentClient.contentManager_51  TotalBytesDownloaded:vector  ETV
attr source ContentManager_TotalBytesDownloaded
attr title "Total of Bytes Downloaded, vector"
attr unit B
1760	199207 3942 5524104 235042585 36010.958432494203 36234.477211759032 96 32768 3145728 152567808 3.2162433099366e+14
vector 1808  BasicTopology.peer[22].bitTorrentApp.bitTorrentClient.contentManager_51  TotalBytesDownloaded:vector  ETV
attr source ContentManager_TotalBytesDownloaded
attr title "Total of Bytes Downloaded, vector"
attr unit B
1808	259102 4093 5534542 214624998 36010.972704198111 36203.39385142742 100 32768 3276800 165478400 3.633005461504e+14
vector 1728  BasicTopology.peer[12].bitTorrentApp.bitTorrentClient.contentManager_51  TotalBytesDownloaded:vector  ETV
attr source ContentManager_TotalBytesDownloaded
attr title "Total of Bytes Downloaded, vector"
attr unit B
1728	164971 3914 5656291 174965919 36011.142644497449 36157.312986688418 96 32768 3145728 152567808 3.2162433099366e+14
vector 1800  BasicTopology.peer[21].bitTorrentApp.bitTorrentClient.contentManager_51  TotalBytesDownloaded:vector  ETV
attr source ContentManager_TotalBytesDownloaded
attr title "Total of Bytes Downloaded, vector"
attr unit B
1800	246895 3924 5940082 204423436 36011.519424943482 36190.487518924432 96 32768 3145728 152567808 3.2162433099366e+14
vector 1816  BasicTopology.peer[23].bitTorrentApp.bitTorrentClient.contentManager_51  TotalBytesDownloaded:vector  ETV
attr source ContentManager_TotalBytesDownloaded
attr title "Total of Bytes Downloaded, vector"
attr unit B
1816	269454 3931 6176822 225629898 36011.934989035804 36219.03621794702 96 32768 3145728 152567808 3.2162433099366e+14
vector 1744  BasicTopology.peer[14].bitTorrentApp.bitTorrentClient.contentManager_51  TotalBytesDownloaded:vector  ETV
attr source ContentManager_TotalBytesDownloaded
attr title "Total of Bytes Downloaded, vector"
attr unit B
1744	185941 3932 6222010 230047600 36011.994103121861 36225.470874764625 96 32768 3145728 152567808 3.2162433099366e+14
vector 1696  BasicTopology.peer[8].bitTorrentApp.bitTorrentClient.contentManager_51  TotalBytesDownloaded:vector  ETV
attr source ContentManager_TotalBytesDownloaded
attr title "Total of Bytes Downloaded, vector"
attr unit B
1696	131403 4283 6510334 234813675 36012.504858810179 36233.723221439384 104 32768 3407872 178913280 4.0842991501312e+14
vector 1824  BasicTopology.peer[24].bitTorrentApp.bitTorrentClient.contentManager_51  TotalBytesDownloaded:vector  ETV
attr source ContentManager_TotalBytesDownloaded
attr title "Total of Bytes Downloaded, vector"
attr unit B
1824	277125 3947 6568902 214674413 36012.577737416601 36203.498721371206 96 32768 3145728 152567808 3.2162433099366e+14
vector 1759  BasicTopology.peer[16].bitTorrentApp.bitTorrentClient.contentManager_51  PiecesDownloaded:vector  ETV
attr source ContentManager_PieceDownloaded
attr title "Pieces Downloaded, vector"
1759	198778 429 6622841 235042585 36012.640985795927 36234.477211759032 12 0 11 66 506
vector 1761  BasicTopology.peer[16].bitTorrentApp.bitTorrentClient.contentManager_51  TotalBytesUploaded:vector  ETV
attr source ContentManager_TotalBytesUploaded
attr title "Total of Bytes Uploaded, vector"
attr unit B
1761	203149 2883 6665571 53372880 36012.683263301128 36052.522329784982 72 32768 2359296 86114304 1.3638668648448e+14
vector 1752  BasicTopology.peer[15].bitTorrentApp.bitTorrentClient.contentManager_51  TotalBytesDownloaded:vector  ETV
attr source ContentManager_TotalBytesDownloaded
attr title "Total of Bytes Downloaded, vector"
attr unit B
1752	194506 3948 6858942 208361827 36012.925674823643 36195.463720294204 96 32768 3145728 152567808 3.2162433099366e+14
vector 1743  BasicTopology.peer[14].bitTorrentApp.bitTorrentClient.contentManager_51  PiecesDownloaded:vector  ETV
attr source ContentManager_PieceDownloaded
attr title "Pieces Downloaded, vector"
1743	185517 424 7223394 230047600 36013.401732966073 36225.470874764625 12 0 11 66 506
vector 1745  BasicTopology.peer[14].bitTorrentApp.bitTorrentClient.contentManager_51  TotalBytesUploaded:vector  ETV
attr source ContentManager_TotalBytesUploaded
attr title "Total of Bytes Uploaded, vector"
attr unit B
1745	189873 4204 7239910 185796555 36013.424981380757 36168.558457045065 104 32768 3407872 178913280 4.0842991501312e+14
vector 1807  BasicTopology.peer[22].bitTorrentApp.bitTorrentClient.contentManager_51  PiecesDownloaded:vector  ETV
attr source ContentManager_PieceDownloaded
attr title "Pieces Downloaded, vector"
1807	258678 424 7418346 214624998 36013.744851871508 36203.39385142742 12 0 11 66 506
vector 1768  BasicTopology.peer[17].bitTorrentApp.bitTorrentClient.contentManager_51  TotalBytesDownloaded:vector  ETV
attr source ContentManager_TotalBytesDownloaded
attr title "Total of Bytes Downloaded, vector"
attr unit B
1768	206459 4359 7460408 217962992 36013.793316681982 36207.925537991933 106 32768 3473408 185827328 4.3233248175718e+14
vector 1809  BasicTopology.peer[22].bitTorrentApp.bitTorrentClient.contentManager_51  TotalBytesUploaded:vector  ETV
attr source ContentManager_TotalBytesUploaded
attr title "Total of Bytes Uploaded, vector"
attr unit B
1809	263195 5831 7482924 130142886 36013.819240744763 36117.243954712053 144 32768 4718592 342097920 1.0798836272333e+15
vector 1688  BasicTopology.peer[7].bitTorrentApp.bitTorrentClient.contentManager_51  TotalBytesDownloaded:vector  ETV
attr source ContentManager_TotalBytesDownloaded
attr title "Total of Bytes Downloaded, vector"
attr unit B
1688	124121 3951 8080601 224045499 36014.707888129929 36216.670754317262 96 32768 3145728 152567808 3.2162433099366e+14
vector 1776  BasicTopology.peer[18].bitTorrentApp.bitTorrentClient.contentManager_51  TotalBytesDownloaded:vector  ETV
attr source ContentManager_TotalBytesDownloaded
attr title "Total of Bytes Downloaded, vector"
attr unit B
1776	215807 4620 8153670 229259907 36014.80371144503 36224.200291469832 112 32768 3670016 207355904 5.095978696704e+14
vector 1767  BasicTopology.peer[17].bitTorrentApp.bitTorrentClient.contentManager_51  PiecesDownloaded:vector  ETV
attr source ContentManager_PieceDownloaded
attr title "Pieces Downloaded, vector"
1767	206032 427 8475279 189946738 36015.230638492625 36173.170134389872 12 0 11 66 506
vector 1769  BasicTopology.peer[17].bitTorrentApp.bitTorrentClient.contentManager_51  TotalBytesUploaded:vector  ETV
attr source ContentManager_TotalBytesUploaded
attr title "Total of Bytes Uploaded, vector"
attr unit B
1769	210818 4563 8492429 147278350 36015.261462494789 36131.630184066421 113 32768 3702784 211058688 5.2330847902106e+14
vector 1672  BasicTopology.peer[5].bitTorrentApp.bitTorrentClient.contentManager_51  TotalBytesDownloaded:vector  ETV
attr source ContentManager_TotalBytesDownloaded
attr title "Total of Bytes Downloaded, vector"
attr unit B
1672	102477 3947 8592323 176263854 36015.391386749624 36158.615617438336 96 32768 3145728 152567808 3.2162433099366e+14
vector 1671  BasicTopology.peer[5].bitTorrentApp.bitTorrentClient.contentManager_51  PiecesDownloaded:vector  ETV
attr source ContentManager_PieceDownloaded
attr title "Pieces Downloaded, vector"
1671	102049 428 8892556 176263854 36015.850442952607 36158.615617438336 12 0 11 66 506
vector 1720  BasicTopology.peer[11].bitTorrentApp.bitTorrentClient.contentManager_51  TotalBytesDownloaded:vector  ETV
attr source ContentManager_TotalBytesDownloaded
attr title "Total of Bytes Downloaded, vector"
attr unit B
1720	157026 3935 9447180 213235284 36016.558020354438 36201.552416083124 96 32768 3145728 152567808 3.2162433099366e+14
vector 1704  BasicTopology.peer[9].bitTorrentApp.bitTorrentClient.contentManager_51  TotalBytesDownloaded:vector  ETV
attr source ContentManager_TotalBytesDownloaded
attr title "Total of Bytes Downloaded, vector"
attr unit B
1704	140034 3942 9488046 232535899 36016.58704542349 36229.486739364114 96 32768 3145728 152567808 3.2162433099366e+14
vector 1639  BasicTopology.peer[1].bitTorrentApp.bitTorrentClient.contentManager_51  PiecesDownloaded:vector  ETV
attr source ContentManager_PieceDownloaded
attr title "Pieces Downloaded, vector"
1639	57930 425 9519900 217882983 36016.61649134425 36207.844847312115 12 0 11 66 506
vector 1673  BasicTopology.peer[5].bitTorrentApp.bitTorrentClient.contentManager_51  TotalBytesUploaded:vector  ETV
attr source ContentManager_TotalBytesUploaded
attr title "Total of Bytes Uploaded, vector"
attr unit B
1673	106424 3266 9536021 133373067 36016.63178198692 36119.861534165374 80 32768 2621440 106168320 1.8670222835712e+14
vector 1641  BasicTopology.peer[1].bitTorrentApp.bitTorrentClient.contentManager_51  TotalBytesUploaded:vector  ETV
attr source ContentManager_TotalBytesUploaded
attr title "Total of Bytes Uploaded, vector"
attr unit B
1641	62279 4189 9543640 96278779 36016.637902369975 36089.12905349164 104 32768 3407872 178913280 4.0842991501312e+14
vector 1664  BasicTopology.peer[4].bitTorrentApp.bitTorrentClient.contentManager_51  TotalBytesDownloaded:vector  ETV
attr source ContentManager_TotalBytesDownloaded
attr title "Total of Bytes Downloaded, vector"
attr unit B