file 462192 1593887685                                          
version 2
run Test-30-20200525-21:18:35-11240
attr configname Test
attr datetime 20200525-21:18:35
attr experiment "\"Simulation Test\""
attr inifile BasicConfig.ini
attr iterationvars ""
attr iterationvars2 $repetition=30
attr measurement "\"Peers: $peers, Rate: $rate\""
attr network BasicTopology
attr processid 11240
attr repetition 30
attr replication #30
attr resultdir results
attr runnumber 30
attr seedset 30
vector 3  BasicTopology.peer[1].bitTorrentApp.bitTorrentClient  DownloadComplete_Test:vector  ETV
attr source BitTorrentClient_DownloadComplete_Test
attr title "Descargas completas (prueba), vector"
3	42447 65 135 109778815 36001 36094.477744745344 2 36001 36094.477744745 72095.477744745 2598883324.6659
vector 5  BasicTopology.peer[2].bitTorrentApp.bitTorrentClient  DownloadComplete_Test:vector  ETV
attr source BitTorrentClient_DownloadComplete_Test
attr title "Descargas completas (prueba), vector"
5	42512 65 136 218992476 36001 36207.998031266572 2 36001 36207.998031267 72208.998031267 2607091122.4322
vector 7  BasicTopology.peer[3].bitTorrentApp.bitTorrentClient  DownloadComplete_Test:vector  ETV
attr source BitTorrentClient_DownloadComplete_Test
attr title "Descargas completas (prueba), vector"
7	42577 65 137 201285113 36001 36181.998940323101 2 36001 36181.998940323 72182.998940323 2605209048.3175
vector 9  BasicTopology.peer[4].bitTorrentApp.bitTorrentClient  DownloadComplete_Test:vector  ETV
attr source BitTorrentClient_DownloadComplete_Test
attr title "Descargas completas (prueba), vector"
9	42642 64 138 206256537 36001 36188.281711509965 2 36001 36188.28171151 72189.28171151 2605663734.2316
vector 11  BasicTopology.peer[5].bitTorrentApp.bitTorrentClient  DownloadComplete_Test:vector  ETV
attr source BitTorrentClient_DownloadComplete_Test
attr title "Descargas completas (prueba), vector"
11	42706 67 139 216077515 36001 36203.157041228159 2 36001 36203.157041228 72204.157041228 2606740580.7518
vector 13  BasicTopology.peer[6].bitTorrentApp.bitTorrentClient  DownloadComplete_Test:vector  ETV
attr source BitTorrentClient_DownloadComplete_Test
attr title "Descargas completas (prueba), vector"
13	42773 66 140 201349487 36001 36182.101477490435 2 36001 36182.10147749 72183.10147749 2605216468.3274
vector 15  BasicTopology.peer[7].bitTorrentApp.bitTorrentClient  DownloadComplete_Test:vector  ETV
attr source BitTorrentClient_DownloadComplete_Test
attr title "Descargas completas (prueba), vector"
15	42839 66 141 179900006 36001 36158.486937369727 2 36001 36158.48693737 72159.48693737 2603508178.6
vector 17  BasicTopology.peer[8].bitTorrentApp.bitTorrentClient  DownloadComplete_Test:vector  ETV
attr source BitTorrentClient_DownloadComplete_Test
attr title "Descargas completas (prueba), vector"
17	42905 66 142 210952753 36001 36194.86588055118 2 36001 36194.865880551 72195.865880551 2606140317.1111
vector 19  BasicTopology.peer[9].bitTorrentApp.bitTorrentClient  DownloadComplete_Test:vector  ETV
attr source BitTorrentClient_DownloadComplete_Test
attr title "Descargas completas (prueba), vector"
19	42971 67 143 207965954 36001 36190.574322077892 2 36001 36190.574322078 72191.574322078 2605829670.7619
vector 21  BasicTopology.peer[10].bitTorrentApp.bitTorrentClient  DownloadComplete_Test:vector  ETV
attr source BitTorrentClient_DownloadComplete_Test
attr title "Descargas completas (prueba), vector"
21	43038 67 144 205614891 36001 36187.536621425877 2 36001 36187.536621426 72188.536621426 2605609807.727
vector 23  BasicTopology.peer[11].bitTorrentApp.bitTorrentClient  DownloadComplete_Test:vector  ETV
attr source BitTorrentClient_DownloadComplete_Test
attr title "Descargas completas (prueba), vector"
23	43105 67 145 133451874 36001 36113.619540803775 2 36001 36113.619540804 72114.619540804 2600265517.3379
vector 25  BasicTopology.peer[12].bitTorrentApp.bitTorrentClient  DownloadComplete_Test:vector  ETV
attr source BitTorrentClient_DownloadComplete_Test
attr title "Descargas completas (prueba), vector"
25	43172 67 146 184611092 36001 36163.623087457976 2 36001 36163.623087458 72164.623087458 2603879635.8117
vector 27  BasicTopology.peer[13].bitTorrentApp.bitTorrentClient  DownloadComplete_Test:vector  ETV
attr source BitTorrentClient_DownloadComplete_Test
attr title "Descargas completas (prueba), vector"
27	43239 67 147 209347480 36001 36192.294004524608 2 36001 36192.294004525 72193.294004525 2605954146.31
vector 29  BasicTopology.peer[14].bitTorrentApp.bitTorrentClient  DownloadComplete_Test:vector  ETV
attr source BitTorrentClient_DownloadComplete_Test
attr title "Descargas completas (prueba), vector"
29	43306 67 148 215759099 36001 36202.724547913444 2 36001 36202.724547913 72203.724547913 2606709265.6921
vector 31  BasicTopology.peer[15].bitTorrentApp.bitTorrentClient  DownloadComplete_Test:vector  ETV
attr source BitTorrentClient_DownloadComplete_Test
attr title "Descargas completas (prueba), vector"
31	43373 67 149 206317948 36001 36188.344452792379 2 36001 36188.344452792 72189.344452792 2605668275.2339
vector 33  BasicTopology.peer[16].bitTorrentApp.bitTorrentClient  DownloadComplete_Test:vector  ETV
attr source BitTorrentClient_DownloadComplete_Test
attr title "Descargas completas (prueba), vector"
33	43440 67 150 182021719 36001 36160.818634812812 2 36001 36160.818634813 72161.818634813 2603676805.3398
vector 35  BasicTopology.peer[17].bitTorrentApp.bitTorrentClient  DownloadComplete_Test:vector  ETV
attr source BitTorrentClient_DownloadComplete_Test
attr title "Descargas completas (prueba), vector"
35	43507 67 151 221233393 36001 36214.330452454054 2 36001 36214.330452454 72215.330452454 2607549731.1195
vector 37  BasicTopology.peer[18].bitTorrentApp.bitTorrentClient  DownloadComplete_Test:vector  ETV
attr source BitTorrentClient_DownloadComplete_Test
attr title "Descargas completas (prueba), vector"
37	43574 67 152 217163695 36001 36204.782950345141 2 36001 36204.782950345 72205.782950345 2606858309.4816
vector 39  BasicTopology.peer[19].bitTorrentApp.bitTorrentClient  DownloadComplete_Test:vector  ETV
attr source BitTorrentClient_DownloadComplete_Test
attr title "Descargas completas (prueba), vector"
39	43641 67 153 210412865 36001 36194.130265770965 2 36001 36194.130265771 72195.130265771 2606087066.6956
vector 41  BasicTopology.peer[20].bitTorrentApp.bitTorrentClient  DownloadComplete_Test:vector  ETV
attr source BitTorrentClient_DownloadComplete_Test
attr title "Descargas completas (prueba), vector"
41	43708 66 154 63317042 36001 36059.607792873823 2 36001 36059.607792874 72060.607792874 2596367315.1759
vector 43  BasicTopology.peer[21].bitTorrentApp.bitTorrentClient  DownloadComplete_Test:vector  ETV
attr source BitTorrentClient_DownloadComplete_Test
attr title "Descargas completas (prueba), vector"
43	43774 67 155 218844789 36001 36207.736120332988 2 36001 36207.736120333 72208.736120333 2607072155.9597
vector 45  BasicTopology.peer[22].bitTorrentApp.bitTorrentClient  DownloadComplete_Test:vector  ETV
attr source BitTorrentClient_DownloadComplete_Test
attr title "Descargas completas (prueba), vector"
45	43841 67 156 223768302 36001 36236.270450526221 2 36001 36236.270450526 72237.270450526 2609139297.1637
vector 47  BasicTopology.peer[23].bitTorrentApp.bitTorrentClient  DownloadComplete_Test:vector  ETV
attr source BitTorrentClient_DownloadComplete_Test
attr title "Descargas completas (prueba), vector"
47	43908 67 157 201857042 36001 36182.837221644539 2 36001 36182.837221645 72183.837221645 2605269710.4081
vector 49  BasicTopology.peer[24].bitTorrentApp.bitTorrentClient  DownloadComplete_Test:vector  ETV
attr source BitTorrentClient_DownloadComplete_Test
attr title "Descargas completas (prueba), vector"
49	43975 67 158 205183385 36001 36186.929272564204 2 36001 36186.929272564 72187.929272564 2605565851.1775
vector 51  BasicTopology.peer[25].bitTorrentApp.bitTorrentClient  DownloadComplete_Test:vector  ETV
attr source BitTorrentClient_DownloadComplete_Test
attr title "Descargas completas (prueba), vector"
51	44042 67 159 202736645 36001 36183.954291487926 2 36001 36183.954291488 72184.954291488 2605350549.1685
vector 53  BasicTopology.peer[26].bitTorrentApp.bitTorrentClient  DownloadComplete_Test:vector  ETV
attr source BitTorrentClient_DownloadComplete_Test
attr title "Descargas completas (prueba), vector"
53	44109 67 160 214528335 36001 36200.867214644695 2 36001 36200.867214645 72201.867214645 2606574788.0924
vector 55  BasicTopology.peer[27].bitTorrentApp.bitTorrentClient  DownloadComplete_Test:vector  ETV
attr source BitTorrentClient_DownloadComplete_Test
attr title "Descargas completas (prueba), vector"
55	44176 67 161 220070105 36001 36210.289657933945 2 36001 36210.289657934 72211.289657934 2607257078.1115
vector 57  BasicTopology.peer[28].bitTorrentApp.bitTorrentClient  DownloadComplete_Test:vector  ETV
attr source BitTorrentClient_DownloadComplete_Test
attr title "Descargas completas (prueba), vector"
57	44243 65 162 220128565 36001 36210.97073009021 2 36001 36210.97073009 72211.97073009 2607306402.2154
vector 59  BasicTopology.peer[29].bitTorrentApp.bitTorrentClient  DownloadComplete_Test:vector  ETV
attr source BitTorrentClient_DownloadComplete_Test
attr title "Descargas completas (prueba), vector"
59	44308 67 163 217857241 36001 36205.978565183121 2 36001 36205.978565183 72206.978565183 2606944884.8625
vector 61  BasicTopology.peer[30].bitTorrentApp.bitTorrentClient  DownloadComplete_Test:vector  ETV
attr source BitTorrentClient_DownloadComplete_Test
attr title "Descargas completas (prueba), vector"
61	44375 67 164 221899650 36001 36216.800819253076 2 36001 36216.800819253 72217.800819253 2607728662.5814
vector 63  BasicTopology.peer[31].bitTorrentApp.bitTorrentClient  DownloadComplete_Test:vector  ETV
attr source BitTorrentClient_DownloadComplete_Test
attr title "Descargas completas (prueba), vector"
63	44442 67 165 177830320 36001 36156.002976878554 2 36001 36156.002976879 72157.002976879 2603328552.2641
vector 65  BasicTopology.peer[32].bitTorrentApp.bitTorrentClient  DownloadComplete_Test:vector  ETV
attr source BitTorrentClient_DownloadComplete_Test
attr title "Descargas completas (prueba), vector"
65	44509 66 166 192734380 36001 36172.395577770353 2 36001 36172.39557777 72173.39557777 2604514202.8347
vector 67  BasicTopology.peer[33].bitTorrentApp.bitTorrentClient  DownloadComplete_Test:vector  ETV
attr source BitTorrentClient_DownloadComplete_Test
attr title "Descargas completas (prueba), vector"
67	44575 67 167 212245966 36001 36196.815675765844 2 36001 36196.815675766 72197.815675766 2606281466.0654
vector 69  BasicTopology.peer[34].bitTorrentApp.bitTorrentClient  DownloadComplete_Test:vector  ETV
attr source BitTorrentClient_DownloadComplete_Test
attr title "Descargas completas (prueba), vector"
69	44642 67 168 205255244 36001 36187.031463291733 2 36001 36187.031463292 72188.031463292 2605573247.1253
vector 71  BasicTopology.peer[35].bitTorrentApp.bitTorrentClient  DownloadComplete_Test:vector  ETV
attr source BitTorrentClient_DownloadComplete_Test
attr title "Descargas completas (prueba), vector"
71	44709 67 169 222369523 36001 36220.319832257058 2 36001 36220.319832257 72221.319832257 2607983569.751
vector 73  BasicTopology.peer[36].bitTorrentApp.bitTorrentClient  DownloadComplete_Test:vector  ETV
attr source BitTorrentClient_DownloadComplete_Test
attr title "Descargas completas (prueba), vector"
73	44776 66 170 225071291 36001 36241.44114322546 2 36001 36241.441143225 72242.441143225 2609514057.1378
vector 75  BasicTopology.peer[37].bitTorrentApp.bitTorrentClient  DownloadComplete_Test:vector  ETV
attr source BitTorrentClient_DownloadComplete_Test
attr title "Descargas completas (prueba), vector"
75	44842 67 171 209518177 36001 36192.576253668053 2 36001 36192.576253668 72193.576253668 2605974576.8776
vector 77  BasicTopology.peer[38].bitTorrentApp.bitTorrentClient  DownloadComplete_Test:vector  ETV
attr source BitTorrentClient_DownloadComplete_Test
attr title "Descargas completas (prueba), vector"
77	44909 67 172 219236351 36001 36208.579785658094 2 36001 36208.579785658 72209.579785658 2607133251.0944
vector 79  BasicTopology.peer[39].bitTorrentApp.bitTorrentClient  DownloadComplete_Test:vector  ETV
attr source BitTorrentClient_DownloadComplete_Test
attr title "Descargas completas (prueba), vector"
79	44976 67 173 214839286 36001 36201.332410772496 2 36001 36201.332410772 72202.332410772 2606608469.3152
vector 81  BasicTopology.peer[40].bitTorrentApp.bitTorrentClient  DownloadComplete_Test:vector  ETV
attr source BitTorrentClient_DownloadComplete_Test
attr title "Descargas completas (prueba), vector"
81	45043 67 174 199558231 36001 36180.017967360692 2 36001 36180.017967361 72181.017967361 2605065701.1186
vector 83  BasicTopology.peer[41].bitTorrentApp.bitTorrentClient  DownloadComplete_Test:vector  ETV
attr source BitTorrentClient_DownloadComplete_Test
attr title "Descargas completas (prueba), vector"
83	45110 67 175 177921925 36001 36156.106889482635 2 36001 36156.106889483 72157.106889483 2603336066.4037
vector 85  BasicTopology.peer[42].bitTorrentApp.bitTorrentClient  DownloadComplete_Test:vector  ETV
attr source BitTorrentClient_DownloadComplete_Test
attr title "Descargas completas (prueba), vector"
85	45177 67 176 139266152 36001 36118.594962491014 2 36001 36118.594962491 72119.594962491 2600624903.0645
vector 87  BasicTopology.peer[43].bitTorrentApp.bitTorrentClient  DownloadComplete_Test:vector  ETV
attr source BitTorrentClient_DownloadComplete_Test
attr title "Descargas completas (prueba), vector"
87	45244 67 177 217551442 36001 36205.532028042939 2 36001 36205.532028043 72206.532028043 2606912550.4336
vector 89  BasicTopology.peer[44].bitTorrentApp.bitTorrentClient  DownloadComplete_Test:vector  ETV
attr source BitTorrentClient_DownloadComplete_Test
attr title "Descargas completas (prueba), vector"
89	45311 67 178 201107913 36001 36181.808331372612 2 36001 36181.808331373 72182.808331373 2605195255.1282
vector 91  BasicTopology.peer[45].bitTorrentApp.bitTorrentClient  DownloadComplete_Test:vector  ETV
attr source BitTorrentClient_DownloadComplete_Test
attr title "Descargas completas (prueba), vector"
91	45378 67 179 215888252 36001 36202.891445052819 2 36001 36202.891445053 72203.891445053 2606721349.9823
vector 93  BasicTopology.peer[46].bitTorrentApp.bitTorrentClient  DownloadComplete_Test:vector  ETV
attr source BitTorrentClient_DownloadComplete_Test
attr title "Descargas completas (prueba), vector"
93	45445 67 180 218394633 36001 36207.089055640781 2 36001 36207.089055641 72208.089055641 2607025298.8831
vector 95  BasicTopology.peer[47].bitTorrentApp.bitTorrentClient  DownloadComplete_Test:vector  ETV
attr source BitTorrentClient_DownloadComplete_Test
attr title "Descargas completas (prueba), vector"
95	45512 67 181 212940243 36001 36197.951778132533 2 36001 36197.951778133 72198.951778133 2606363713.932
vector 97  BasicTopology.peer[48].bitTorrentApp.bitTorrentClient  DownloadComplete_Test:vector  ETV
attr source BitTorrentClient_DownloadComplete_Test
attr title "Descargas completas (prueba), vector"
97	45579 67 182 219101294 36001 36208.137950340714 2 36001 36208.137950341 72209.137950341 2607101254.8309
vector 99  BasicTopology.peer[49].bitTorrentApp.bitTorrentClient  DownloadComplete_Test:vector  ETV
attr source BitTorrentClient_DownloadComplete_Test
attr title "Descargas completas (prueba), vector"
99	45646 67 183 196433129 36001 36176.376034876885 2 36001 36176.376034877 72177.376034877 2604802184.0168
vector 1633  BasicTopology.peer[0].bitTorrentApp.bitTorrentClient.contentManager_51  TotalBytesUploaded:vector  ETV
attr source ContentManager_TotalBytesUploaded
attr title "Total of Bytes Uploaded, vector"
attr unit B
1633	45713 14352 1108357 214340730 36002.068704243584 36200.578926401027 352 32768 11534336 2035810304 1.5676716529746e+16
vector 1792  BasicTopology.peer[20].bitTorrentApp.bitTorrentClient.contentManager_51  TotalBytesDownloaded:vector  ETV
attr source ContentManager_TotalBytesDownloaded
attr title "Total of Bytes Downloaded, vector"
attr unit B
1792	223219 3864 1651639 63317042 36003.487175689648 36059.607792873823 96 32768 3145728 152567808 3.2162433099366e+14
vector 1720  BasicTopology.peer[11].bitTorrentApp.bitTorrentClient.contentManager_51  TotalBytesDownloaded:vector  ETV
attr source ContentManager_TotalBytesDownloaded
attr title "Total of Bytes Downloaded, vector"
attr unit B
1720	146856 3883 2135305 133451874 36004.202647341346 36113.619540803775 96 32768 3145728 152567808 3.2162433099366e+14
vector 1888  BasicTopology.peer[32].bitTorrentApp.bitTorrentClient.contentManager_51  TotalBytesDownloaded:vector  ETV
attr source ContentManager_TotalBytesDownloaded
attr title "Total of Bytes Downloaded, vector"
attr unit B
1888	317112 3999 2750636 192734380 36004.827033378908 36172.395577770353 97 32768 3178496 155746304 3.3172716781568e+14
vector 1719  BasicTopology.peer[11].bitTorrentApp.bitTorrentClient.contentManager_51  PiecesDownloaded:vector  ETV
attr source ContentManager_PieceDownloaded
attr title "Pieces Downloaded, vector"
1719	146434 422 3083265 133451874 36005.559590458892 36113.619540803775 12 0 11 66 506
vector 1721  BasicTopology.peer[11].bitTorrentApp.bitTorrentClient.contentManager_51  TotalBytesUploaded:vector  ETV
attr source ContentManager_TotalBytesUploaded
attr title "Total of Bytes Uploaded, vector"
attr unit B
1721	150739 12407 3098527 118263589 36005.574160274151 36101.134144944532 305 32768 9994240 1529118720 1.0204955038188e+16
vector 1848  BasicTopology.peer[27].bitTorrentApp.bitTorrentClient.contentManager_51  TotalBytesDownloaded:vector  ETV
attr source ContentManager_TotalBytesDownloaded
attr title "Total of Bytes Downloaded, vector"
attr unit B
1848	276086 3923 3329503 220070105 36005.917026842781 36210.289657933945 96 32768 3145728 152567808 3.2162433099366e+14
vector 1791  BasicTopology.peer[20].bitTorrentApp.bitTorrentClient.contentManager_51  PiecesDownloaded:vector  ETV
attr source ContentManager_PieceDownloaded
attr title "Pieces Downloaded, vector"
1791	222802 417 3399405 63317042 36006.038445726216 36059.607792873823 12 0 11 66 506
vector 1793  BasicTopology.peer[20].bitTorrentApp.bitTorrentClient.contentManager_51  TotalBytesUploaded:vector  ETV
attr source ContentManager_TotalBytesUploaded
attr title "Total of Bytes Uploaded, vector"
attr unit B
1793	227083 9863 3468492 202436035 36006.14668580301 36183.555296237842 242 32768 7929856 963477504 5.1040156542566e+15
vector 1744  BasicTopology.peer[14].bitTorrentApp.bitTorrentClient.contentManager_51  TotalBytesDownloaded:vector  ETV
attr source ContentManager_TotalBytesDownloaded
attr title "Total of Bytes Downloaded, vector"
attr unit B
1744	181411 3948 3579859 215759099 36006.350656148421 36202.724547913444 96 32768 3145728 152567808 3.2162433099366e+14
vector 1640  BasicTopology.peer[1].bitTorrentApp.bitTorrentClient.contentManager_51  TotalBytesDownloaded:vector  ETV
attr source ContentManager_TotalBytesDownloaded
attr title "Total of Bytes Downloaded, vector"
attr unit B
1640	60485 3877 3813676 109778815 36006.893349465126 36094.477744745344 96 32768 3145728 152567808 3.2162433099366e+14
vector 1648  BasicTopology.peer[2].bitTorrentApp.bitTorrentClient.contentManager_51  TotalBytesDownloaded:vector  ETV
attr source ContentManager_TotalBytesDownloaded
attr title "Total of Bytes Downloaded, vector"
attr unit B
1648	69391 3910 3838303 218992476 36006.964471291434 36207.998031266572 96 32768 3145728 152567808 3.2162433099366e+14
vector 1872  BasicTopology.peer[30].bitTorrentApp.bitTorrentClient.contentManager_51  TotalBytesDownloaded:vector  ETV
attr source ContentManager_TotalBytesDownloaded
attr title "Total of Bytes Downloaded, vector"
attr unit B
1872	295576 3891 4506592 221899650 36008.078796081935 36216.800819253076 96 32768 3145728 152567808 3.2162433099366e+14
vector 1664  BasicTopology.peer[4].bitTorrentApp.bitTorrentClient.contentManager_51  TotalBytesDownloaded:vector  ETV
attr source ContentManager_TotalBytesDownloaded
attr title "Total of Bytes Downloaded, vector"
attr unit B
1664	92866 3944 4545613 206256537 36008.164386676077 36188.281711509965 96 32768 3145728 152567808 3.2162433099366e+14
vector 1776  BasicTopology.peer[18].bitTorrentApp.bitTorrentClient.contentManager_51  TotalBytesDownloaded:vector  ETV
attr source ContentManager_TotalBytesDownloaded
attr title "Total of Bytes Downloaded, vector"
attr unit B
1776	211119 3946 4653277 217163695 36008.297390766996 36204.782950345141 96 32768 3145728 152567808 3.2162433099366e+14
vector 1639  BasicTopology.peer[1].bitTorrentApp.bitTorrentClient.contentManager_51  PiecesDownloaded:vector  ETV
attr source ContentManager_PieceDownloaded
attr title "Pieces Downloaded, vector"
1639	60065 420 5362834 109778815 36009.272318307196 36094.477744745344 12 0 11 66 506
vector 1641  BasicTopology.peer[1].bitTorrentApp.bitTorrentClient.contentManager_51  TotalBytesUploaded:vector  ETV
attr source ContentManager_TotalBytesUploaded
attr title "Total of Bytes Uploaded, vector"
attr unit B
1641	64362 4604 5387239 210031223 36009.312968387071 36193.417381132486 113 32768 3702784 211058688 5.2330847902106e+14
vector 1847  BasicTopology.peer[27].bitTorrentApp.bitTorrentClient.contentManager_51  PiecesDownloaded:vector  ETV
attr source ContentManager_PieceDownloaded
attr title "Pieces Downloaded, vector"
1847	275658 428 5421358 220070105 36009.377714473607 36210.289657933945 12 0 11 66 506
vector 1849  BasicTopology.peer[27].bitTorrentApp.bitTorrentClient.contentManager_51  TotalBytesUploaded:vector  ETV
attr source ContentManager_TotalBytesUploaded
attr title "Total of Bytes Uploaded, vector"
attr unit B
1849	280009 4830 5504189 137011978 36009.466296802262 36116.636812121068 120 32768 3932160 237895680 6.2622770659328e+14
vector 1960  BasicTopology.peer[41].bitTorrentApp.bitTorrentClient.contentManager_51  TotalBytesDownloaded:vector  ETV
attr source ContentManager_TotalBytesDownloaded
attr title "Total of Bytes Downloaded, vector"
attr unit B
1960	376373 3904 5584380 177921925 36009.558614505438 36156.106889482635 96 32768 3145728 152567808 3.2162433099366e+14
vector 1656  BasicTopology.peer[3].bitTorrentApp.bitTorrentClient.contentManager_51  TotalBytesDownloaded:vector  ETV
attr source ContentManager_TotalBytesDownloaded
attr title "Total of Bytes Downloaded, vector"
attr unit B
1656	80073 3911 6334680 201285113 36010.611919242327 36181.998940323101 96 32768 3145728 152567808 3.2162433099366e+14
vector 1696  BasicTopology.peer[8].bitTorrentApp.bitTorrentClient.contentManager_51  TotalBytesDownloaded:vector  ETV
attr source ContentManager_TotalBytesDownloaded
attr title "Total of Bytes Downloaded, vector"
attr unit B
1696	123083 4115 6564346 210952753 36010.890949001169 36194.86588055118 100 32768 3276800 165478400 3.633005461504e+14
vector 2008  BasicTopology.peer[47].bitTorrentApp.bitTorrentClient.contentManager_51  TotalBytesDownloaded:vector  ETV
attr source ContentManager_TotalBytesDownloaded
attr title "Total of Bytes Downloaded, vector"
attr unit B
2008	438241 4105 6568820 212940243 36010.895773996076 36197.951778132533 100 32768 3276800 165478400 3.633005461504e+14
vector 1688  BasicTopology.peer[7].bitTorrentApp.bitTorrentClient.contentManager_51  TotalBytesDownloaded:vector  ETV
attr source ContentManager_TotalBytesDownloaded
attr title "Total of Bytes Downloaded, vector"
attr unit B
1688	112241 3910 6799006 179900006 36011.16104010728 36158.486937369727 96 32768 3145728 152567808 3.2162433099366e+14
vector 1743  BasicTopology.peer[14].bitTorrentApp.bitTorrentClient.contentManager_51  PiecesDownloaded:vector  ETV
attr source ContentManager_PieceDownloaded
attr title "Pieces Downloaded, vector"
1743	180981 430 6942226 215759099 36011.379530317162 36202.724547913444 12 0 11 66 506
vector 1840  BasicTopology.peer[26].bitTorrentApp.bitTorrentClient.contentManager_51  TotalBytesDownloaded:vector  ETV
attr source ContentManager_TotalBytesDownloaded
attr title "Total of Bytes Downloaded, vector"
attr unit B
1840	269864 4195 6991569 214528335 36011.426824516677 36200.867214644695 102 32768 3342336 172130304 3.8542499643392e+14
vector 1745  BasicTopology.peer[14].bitTorrentApp.bitTorrentClient.contentManager_51  TotalBytesUploaded:vector  ETV
attr source ContentManager_TotalBytesUploaded
attr title "Total of Bytes Uploaded, vector"
attr unit B
1745	185359 3882 7015330 176229686 36011.451644915451 36154.252654761658 96 32768 3145728 152567808 3.2162433099366e+14
vector 1952  BasicTopology.peer[40].bitTorrentApp.bitTorrentClient.contentManager_51  TotalBytesDownloaded:vector  ETV
attr source ContentManager_TotalBytesDownloaded
attr title "Total of Bytes Downloaded, vector"
attr unit B
1952	365051 3921 7172654 199558231 36011.609551691585 36180.017967360692 96 32768 3145728 152567808 3.2162433099366e+14
vector 1687  BasicTopology.peer[7].bitTorrentApp.bitTorrentClient.contentManager_51  PiecesDownloaded:vector  ETV
attr source ContentManager_PieceDownloaded
attr title "Pieces Downloaded, vector"
1687	111819 422 7287320 179900006 36011.734300434406 36158.486937369727 12 0 11 66 506
vector 1689  BasicTopology.peer[7].bitTorrentApp.bitTorrentClient.contentManager_51  TotalBytesUploaded:vector  ETV
attr source ContentManager_TotalBytesUploaded
attr title "Total of Bytes Uploaded, vector"
attr unit B
1689	116151 6503 7301932 145957168 36011.750819974159 36124.509497661433 160 32768 5242880 422051840 1.4797880321638e+15
vector 1871  BasicTopology.peer[30].bitTorrentApp.bitTorrentClient.contentManager_51  PiecesDownloaded:vector  ETV
attr source ContentManager_PieceDownloaded
attr title "Pieces Downloaded, vector"
1871	295155 421 7325519 221899650 36011.77760454408 36216.800819253076 12 0 11 66 506
vector 1873  BasicTopology.peer[30].bitTorrentApp.bitTorrentClient.contentManager_51  TotalBytesUploaded:vector  ETV
attr source ContentManager_TotalBytesUploaded
attr title "Total of Bytes Uploaded, vector"
attr unit B
1873	299467 8971 7360131 143568303 36011.814558602957 36122.338206702051 220 32768 7208960 796590080 3.8370915699917e+15
vector 1695  BasicTopology.peer[8].bitTorrentApp.bitTorrentClient.contentManager_51  PiecesDownloaded:vector  ETV
attr source ContentManager_PieceDownloaded
attr title "Pieces Downloaded, vector"
1695	122654 429 7773450 210952753 36012.393023109074 36194.86588055118 12 0 11 66 506
vector 1697  BasicTopology.peer[8].bitTorrentApp.bitTorrentClient.contentManager_51  TotalBytesUploaded:vector  ETV
attr source ContentManager_TotalBytesUploaded
attr title "Total of Bytes Uploaded, vector"
attr unit B
1697	127198 1565 7802540 9333709 36012.430328473122 36014.20893753226 40 32768 1310720 26869760 23772643983360
vector 1647  BasicTopology.peer[2].bitTorrentApp.bitTorrentClient.contentManager_51  PiecesDownloaded:vector  ETV
attr source ContentManager_PieceDownloaded
attr title "Pieces Downloaded, vector"
1647	68966 425 8029664 218992476 36012.708556218176 36207.998031266572 12 0 11 66 506
vector 1649  BasicTopology.peer[2].bitTorrentApp.bitTorrentClient.contentManager_51  TotalBytesUploaded:vector  ETV
attr source ContentManager_TotalBytesUploaded
attr title "Total of Bytes Uploaded, vector"
attr unit B
1649	73301 6347 8066952 155329314 36012.752839496918 36133.163211641614 156 32768 5111808 401276928 1.3718834213028e+15
vector 1672  BasicTopology.peer[5].bitTorrentApp.bitTorrentClient.contentManager_51  TotalBytesDownloaded:vector  ETV
attr source ContentManager_TotalBytesDownloaded
attr title "Total of Bytes Downloaded, vector"
attr unit B
1672	98423 3950 8106431 216077515 36012.890573181034 36203.157041228159 96 32768 3145728 152567808 3.2162433099366e+14
vector 1816  BasicTopology.peer[23].bitTorrentApp.bitTorrentClient.contentManager_51  TotalBytesDownloaded:vector  ETV
attr source ContentManager_TotalBytesDownloaded
attr title "Total of Bytes Downloaded, vector"
attr unit B
1816	248334 4257 8165279 221984272 36012.979698408878 36217.188099817402 104 32768 3407872 178913280 4.0842991501312e+14
vector 1752  BasicTopology.peer[15].bitTorrentApp.bitTorrentClient.contentManager_51  TotalBytesDownloaded:vector  ETV
attr source ContentManager_TotalBytesDownloaded
attr title "Total of Bytes Downloaded, vector"
attr unit B
1752	189671 3952 8450965 206317948 36013.207031795204 36188.344452792379 96 32768 3145728 152567808 3.2162433099366e+14
vector 1976  BasicTopology.peer[43].bitTorrentApp.bitTorrentClient.contentManager_51  TotalBytesDownloaded:vector  ETV
attr source ContentManager_TotalBytesDownloaded
attr title "Total of Bytes Downloaded, vector"
attr unit B
1976	400221 3931 8522529 217551442 36013.290952998766 36205.532028042939 96 32768 3145728 152567808 3.2162433099366e+14
vector 1704  BasicTopology.peer[9].bitTorrentApp.bitTorrentClient.contentManager_51  TotalBytesDownloaded:vector  ETV
attr source ContentManager_TotalBytesDownloaded
attr title "Total of Bytes Downloaded, vector"
attr unit B
1704	129191 3943 8814368 207965954 36013.692507662346 36190.574322077892 96 32768 3145728 152567808 3.2162433099366e+14
vector 1839  BasicTopology.peer[26].bitTorrentApp.bitTorrentClient.contentManager_51  PiecesDownloaded:vector  ETV
attr source ContentManager_PieceDownloaded
attr title "Pieces Downloaded, vector"
1839	269436 428 9013362 214528335 36013.904457916017 36200.867214644695 12 0 11 66 506
vector 1841  BasicTopology.peer[26].bitTorrentApp.bitTorrentClient.contentManager_51  TotalBytesUploaded:vector  ETV
attr source ContentManager_TotalBytesUploaded
attr title "Total of Bytes Uploaded, vector"
attr unit B
1841	274059 1599 9156343 188981282 36014.03982742537 36168.37013488808 40 32768 1310720 26869760 23772643983360
vector 1703  BasicTopology.peer[9].bitTorrentApp.bitTorrentClient.contentManager_51  PiecesDownloaded:vector  ETV
attr source ContentManager_PieceDownloaded
attr title "Pieces Downloaded, vector"
1703	128763 428 9174077 207965954 36014.053953144185 36190.574322077892 12 0 11 66 506