file 478458 1593887685                                          
version 2
run Test-24-20200525-12:24:36-6855
attr configname Test
attr datetime 20200525-12:24:36
attr experiment "\"Simulation Test\""
attr inifile BasicConfig.ini
attr iterationvars ""
attr iterationvars2 $repetition=24
attr measurement "\"Peers: $peers, Rate: $rate\""
attr network BasicTopology
attr processid 6855
attr repetition 24
attr replication #24
attr resultdir results
attr runnumber 24
attr seedset 24
vector 3  BasicTopology.peer[1].bitTorrentApp.bitTorrentClient  DownloadComplete_Test:vector  ETV
attr source BitTorrentClient_DownloadComplete_Test
attr title "Descargas completas (prueba), vector"
3	41776 65 135 230538553 36001 36238.733774719078 2 36001 36238.733774719 72239.733774719 2609317826.595
vector 5  BasicTopology.peer[2].bitTorrentApp.bitTorrentClient  DownloadComplete_Test:vector  ETV
attr source BitTorrentClient_DownloadComplete_Test
attr title "Descargas completas (prueba), vector"
5	41841 65 136 149525044 36001 36138.211303922038 2 36001 36138.211303922 72139.211303922 2602042317.2469
vector 7  BasicTopology.peer[3].bitTorrentApp.bitTorrentClient  DownloadComplete_Test:vector  ETV
attr source BitTorrentClient_DownloadComplete_Test
attr title "Descargas completas (prueba), vector"
7	41906 65 137 186728261 36001 36178.829156652563 2 36001 36178.829156653 72179.829156653 2604979680.1463
vector 9  BasicTopology.peer[4].bitTorrentApp.bitTorrentClient  DownloadComplete_Test:vector  ETV
attr source BitTorrentClient_DownloadComplete_Test
attr title "Descargas completas (prueba), vector"
9	41971 63 138 239056936 36001 36305.700106299685 2 36001 36305.7001063 72306.7001063 2614175861.2086
vector 11  BasicTopology.peer[5].bitTorrentApp.bitTorrentClient  DownloadComplete_Test:vector  ETV
attr source BitTorrentClient_DownloadComplete_Test
attr title "Descargas completas (prueba), vector"
11	42034 66 139 204286508 36001 36200.43104970439 2 36001 36200.431049704 72201.431049704 2606543209.1844
vector 13  BasicTopology.peer[6].bitTorrentApp.bitTorrentClient  DownloadComplete_Test:vector  ETV
attr source BitTorrentClient_DownloadComplete_Test
attr title "Descargas completas (prueba), vector"
13	42100 67 140 236351749 36001 36253.316265712785 2 36001 36253.316265713 72254.316265713 2610374941.2618
vector 15  BasicTopology.peer[7].bitTorrentApp.bitTorrentClient  DownloadComplete_Test:vector  ETV
attr source BitTorrentClient_DownloadComplete_Test
attr title "Descargas completas (prueba), vector"
15	42167 67 141 218755429 36001 36220.029712689422 2 36001 36220.029712689 72221.029712689 2607962553.3881
vector 17  BasicTopology.peer[8].bitTorrentApp.bitTorrentClient  DownloadComplete_Test:vector  ETV
attr source BitTorrentClient_DownloadComplete_Test
attr title "Descargas completas (prueba), vector"
17	42234 66 142 217921028 36001 36218.958267840376 2 36001 36218.95826784 72219.95826784 2607884939.0075
vector 19  BasicTopology.peer[9].bitTorrentApp.bitTorrentClient  DownloadComplete_Test:vector  ETV
attr source BitTorrentClient_DownloadComplete_Test
attr title "Descargas completas (prueba), vector"
19	42300 67 143 235454212 36001 36248.918996932907 2 36001 36248.918996933 72249.918996933 2610056129.4462
vector 21  BasicTopology.peer[10].bitTorrentApp.bitTorrentClient  DownloadComplete_Test:vector  ETV
attr source BitTorrentClient_DownloadComplete_Test
attr title "Descargas completas (prueba), vector"
21	42367 66 144 116131739 36001 36105.89866878456 2 36001 36105.898668785 72106.898668785 2599707919.6806
vector 23  BasicTopology.peer[11].bitTorrentApp.bitTorrentClient  DownloadComplete_Test:vector  ETV
attr source BitTorrentClient_DownloadComplete_Test
attr title "Descargas completas (prueba), vector"
23	42433 67 145 115037593 36001 36104.946378926569 2 36001 36104.946378927 72105.946378927 2599639154.0252
vector 25  BasicTopology.peer[12].bitTorrentApp.bitTorrentClient  DownloadComplete_Test:vector  ETV
attr source BitTorrentClient_DownloadComplete_Test
attr title "Descargas completas (prueba), vector"
25	42500 66 146 224123570 36001 36227.603014050206 2 36001 36227.60301405 72228.60301405 2608511221.1436
vector 27  BasicTopology.peer[13].bitTorrentApp.bitTorrentClient  DownloadComplete_Test:vector  ETV
attr source BitTorrentClient_DownloadComplete_Test
attr title "Descargas completas (prueba), vector"
27	42566 67 147 216668540 36001 36217.037452687107 2 36001 36217.037452687 72218.037452687 2607745802.8493
vector 29  BasicTopology.peer[14].bitTorrentApp.bitTorrentClient  DownloadComplete_Test:vector  ETV
attr source BitTorrentClient_DownloadComplete_Test
attr title "Descargas completas (prueba), vector"
29	42633 67 148 223684616 36001 36226.850913128472 2 36001 36226.850913128 72227.850913128 2608456728.082
vector 31  BasicTopology.peer[15].bitTorrentApp.bitTorrentClient  DownloadComplete_Test:vector  ETV
attr source BitTorrentClient_DownloadComplete_Test
attr title "Descargas completas (prueba), vector"
31	42700 67 149 238148187 36001 36262.588745148723 2 36001 36262.588745149 72263.588745149 2611047343.4998
vector 33  BasicTopology.peer[16].bitTorrentApp.bitTorrentClient  DownloadComplete_Test:vector  ETV
attr source BitTorrentClient_DownloadComplete_Test
attr title "Descargas completas (prueba), vector"
33	42767 67 150 213050078 36001 36212.251179475739 2 36001 36212.251179476 72213.251179476 2607399136.4855
vector 35  BasicTopology.peer[17].bitTorrentApp.bitTorrentClient  DownloadComplete_Test:vector  ETV
attr source BitTorrentClient_DownloadComplete_Test
attr title "Descargas completas (prueba), vector"
35	42834 67 151 229359142 36001 36236.264680640861 2 36001 36236.264680641 72237.264680641 2609138879.0055
vector 37  BasicTopology.peer[18].bitTorrentApp.bitTorrentClient  DownloadComplete_Test:vector  ETV
attr source BitTorrentClient_DownloadComplete_Test
attr title "Descargas completas (prueba), vector"
37	42901 67 152 230690615 36001 36239.190886354144 2 36001 36239.190886354 72240.190886354 2609350957.0976
vector 39  BasicTopology.peer[19].bitTorrentApp.bitTorrentClient  DownloadComplete_Test:vector  ETV
attr source BitTorrentClient_DownloadComplete_Test
attr title "Descargas completas (prueba), vector"
39	42968 67 153 220501680 36001 36222.338004850689 2 36001 36222.338004851 72223.338004851 2608129771.5377
vector 41  BasicTopology.peer[20].bitTorrentApp.bitTorrentClient  DownloadComplete_Test:vector  ETV
attr source BitTorrentClient_DownloadComplete_Test
attr title "Descargas completas (prueba), vector"
41	43035 67 154 203648929 36001 36199.581922456685 2 36001 36199.581922457 72200.581922457 2606481732.3607
vector 43  BasicTopology.peer[21].bitTorrentApp.bitTorrentClient  DownloadComplete_Test:vector  ETV
attr source BitTorrentClient_DownloadComplete_Test
attr title "Descargas completas (prueba), vector"
43	43102 67 155 220790355 36001 36222.698965503305 2 36001 36222.698965503 72223.698965503 2608155921.3455
vector 45  BasicTopology.peer[22].bitTorrentApp.bitTorrentClient  DownloadComplete_Test:vector  ETV
attr source BitTorrentClient_DownloadComplete_Test
attr title "Descargas completas (prueba), vector"
45	43169 67 156 216972001 36001 36217.487646829447 2 36001 36217.487646829 72218.487646829 2607778412.4482
vector 47  BasicTopology.peer[23].bitTorrentApp.bitTorrentClient  DownloadComplete_Test:vector  ETV
attr source BitTorrentClient_DownloadComplete_Test
attr title "Descargas completas (prueba), vector"
47	43236 67 157 231898730 36001 36241.899141676344 2 36001 36241.899141676 72242.899141676 2609547254.3954
vector 49  BasicTopology.peer[24].bitTorrentApp.bitTorrentClient  DownloadComplete_Test:vector  ETV
attr source BitTorrentClient_DownloadComplete_Test
attr title "Descargas completas (prueba), vector"
49	43303 67 158 170223775 36001 36160.831474901571 2 36001 36160.831474902 72161.831474902 2603677733.9563
vector 51  BasicTopology.peer[25].bitTorrentApp.bitTorrentClient  DownloadComplete_Test:vector  ETV
attr source BitTorrentClient_DownloadComplete_Test
attr title "Descargas completas (prueba), vector"
51	43370 66 159 235109247 36001 36248.32116886884 2 36001 36248.321168869 72249.321168869 2610012788.5615
vector 53  BasicTopology.peer[26].bitTorrentApp.bitTorrentClient  DownloadComplete_Test:vector  ETV
attr source BitTorrentClient_DownloadComplete_Test
attr title "Descargas completas (prueba), vector"
53	43436 67 160 220870933 36001 36222.844880852327 2 36001 36222.844880852 72223.844880852 2608166492.2623
vector 55  BasicTopology.peer[27].bitTorrentApp.bitTorrentClient  DownloadComplete_Test:vector  ETV
attr source BitTorrentClient_DownloadComplete_Test
attr title "Descargas completas (prueba), vector"
55	43503 67 161 230345891 36001 36238.020489593155 2 36001 36238.020489593 72239.020489593 2609266130.0042
vector 57  BasicTopology.peer[28].bitTorrentApp.bitTorrentClient  DownloadComplete_Test:vector  ETV
attr source BitTorrentClient_DownloadComplete_Test
attr title "Descargas completas (prueba), vector"
57	43570 67 162 216353040 36001 36216.647919672189 2 36001 36216.647919672 72217.647919672 2607717587.5375
vector 59  BasicTopology.peer[29].bitTorrentApp.bitTorrentClient  DownloadComplete_Test:vector  ETV
attr source BitTorrentClient_DownloadComplete_Test
attr title "Descargas completas (prueba), vector"
59	43637 67 163 216473572 36001 36216.809046541424 2 36001 36216.809046541 72217.809046541 2607729258.5136
vector 61  BasicTopology.peer[30].bitTorrentApp.bitTorrentClient  DownloadComplete_Test:vector  ETV
attr source BitTorrentClient_DownloadComplete_Test
attr title "Descargas completas (prueba), vector"
61	43704 67 164 219800869 36001 36221.505016999372 2 36001 36221.505016999 72222.505016999 2608069426.6965
vector 63  BasicTopology.peer[31].bitTorrentApp.bitTorrentClient  DownloadComplete_Test:vector  ETV
attr source BitTorrentClient_DownloadComplete_Test
attr title "Descargas completas (prueba), vector"
63	43771 66 165 232450467 36001 36243.365304320364 2 36001 36243.36530432 72244.36530432 2609653529.5824
vector 65  BasicTopology.peer[32].bitTorrentApp.bitTorrentClient  DownloadComplete_Test:vector  ETV
attr source BitTorrentClient_DownloadComplete_Test
attr title "Descargas completas (prueba), vector"
65	43837 67 166 209358904 36001 36207.543871918358 2 36001 36207.543871918 72208.543871918 2607058234.2369
vector 67  BasicTopology.peer[33].bitTorrentApp.bitTorrentClient  DownloadComplete_Test:vector  ETV
attr source BitTorrentClient_DownloadComplete_Test
attr title "Descargas completas (prueba), vector"
67	43904 67 167 217558688 36001 36218.305621972788 2 36001 36218.305621973 72219.305621973 2607837663.1266
vector 69  BasicTopology.peer[34].bitTorrentApp.bitTorrentClient  DownloadComplete_Test:vector  ETV
attr source BitTorrentClient_DownloadComplete_Test
attr title "Descargas completas (prueba), vector"
69	43971 67 168 153481640 36001 36142.302966192694 2 36001 36142.302966193 72143.302966193 2602338064.7001
vector 71  BasicTopology.peer[35].bitTorrentApp.bitTorrentClient  DownloadComplete_Test:vector  ETV
attr source BitTorrentClient_DownloadComplete_Test
attr title "Descargas completas (prueba), vector"
71	44038 67 169 232121054 36001 36242.793362083787 2 36001 36242.793362084 72243.793362084 2609612071.6867
vector 73  BasicTopology.peer[36].bitTorrentApp.bitTorrentClient  DownloadComplete_Test:vector  ETV
attr source BitTorrentClient_DownloadComplete_Test
attr title "Descargas completas (prueba), vector"
73	44105 67 170 201638977 36001 36196.907457667373 2 36001 36196.907457667 72197.907457667 2606288110.4989
vector 75  BasicTopology.peer[37].bitTorrentApp.bitTorrentClient  DownloadComplete_Test:vector  ETV
attr source BitTorrentClient_DownloadComplete_Test
attr title "Descargas completas (prueba), vector"
75	44172 67 171 187982687 36001 36180.213527504258 2 36001 36180.213527504 72181.213527504 2605079851.8958
vector 77  BasicTopology.peer[38].bitTorrentApp.bitTorrentClient  DownloadComplete_Test:vector  ETV
attr source BitTorrentClient_DownloadComplete_Test
attr title "Descargas completas (prueba), vector"
77	44239 67 172 229862623 36001 36237.142372313585 2 36001 36237.142372314 72238.142372314 2609202488.3114
vector 79  BasicTopology.peer[39].bitTorrentApp.bitTorrentClient  DownloadComplete_Test:vector  ETV
attr source BitTorrentClient_DownloadComplete_Test
attr title "Descargas completas (prueba), vector"
79	44306 66 173 204652656 36001 36200.87477831235 2 36001 36200.874778312 72201.874778312 2606575335.715
vector 81  BasicTopology.peer[40].bitTorrentApp.bitTorrentClient  DownloadComplete_Test:vector  ETV
attr source BitTorrentClient_DownloadComplete_Test
attr title "Descargas completas (prueba), vector"
81	44372 67 174 214535796 36001 36214.102640164702 2 36001 36214.102640165 72215.102640165 2607533231.0324
vector 83  BasicTopology.peer[41].bitTorrentApp.bitTorrentClient  DownloadComplete_Test:vector  ETV
attr source BitTorrentClient_DownloadComplete_Test
attr title "Descargas completas (prueba), vector"
83	44439 67 175 193415981 36001 36186.822200084474 2 36001 36186.822200084 72187.822200084 2605558101.9405
vector 85  BasicTopology.peer[42].bitTorrentApp.bitTorrentClient  DownloadComplete_Test:vector  ETV
attr source BitTorrentClient_DownloadComplete_Test
attr title "Descargas completas (prueba), vector"
85	44506 67 176 124656417 36001 36113.686795689374 2 36001 36113.686795689 72114.686795689 2600270374.9771
vector 87  BasicTopology.peer[43].bitTorrentApp.bitTorrentClient  DownloadComplete_Test:vector  ETV
attr source BitTorrentClient_DownloadComplete_Test
attr title "Descargas completas (prueba), vector"
87	44573 67 177 201857118 36001 36197.190380166985 2 36001 36197.190380167 72198.190380167 2606308592.4181
vector 89  BasicTopology.peer[44].bitTorrentApp.bitTorrentClient  DownloadComplete_Test:vector  ETV
attr source BitTorrentClient_DownloadComplete_Test
attr title "Descargas completas (prueba), vector"
89	44640 66 178 203825707 36001 36199.870424969541 2 36001 36199.87042497 72200.87042497 2606502619.7846
vector 91  BasicTopology.peer[45].bitTorrentApp.bitTorrentClient  DownloadComplete_Test:vector  ETV
attr source BitTorrentClient_DownloadComplete_Test
attr title "Descargas completas (prueba), vector"
91	44706 67 179 220264019 36001 36222.061834043765 2 36001 36222.061834044 72223.061834044 2608109764.5093
vector 93  BasicTopology.peer[46].bitTorrentApp.bitTorrentClient  DownloadComplete_Test:vector  ETV
attr source BitTorrentClient_DownloadComplete_Test
attr title "Descargas completas (prueba), vector"
93	44773 67 180 196392379 36001 36190.505271463624 2 36001 36190.505271464 72191.505271464 2605824672.8039
vector 95  BasicTopology.peer[47].bitTorrentApp.bitTorrentClient  DownloadComplete_Test:vector  ETV
attr source BitTorrentClient_DownloadComplete_Test
attr title "Descargas completas (prueba), vector"
95	44840 67 181 205043041 36001 36201.377620677205 2 36001 36201.377620677 72202.377620677 2606611742.6349
vector 97  BasicTopology.peer[48].bitTorrentApp.bitTorrentClient  DownloadComplete_Test:vector  ETV
attr source BitTorrentClient_DownloadComplete_Test
attr title "Descargas completas (prueba), vector"
97	44907 67 182 226709870 36001 36231.702037603108 2 36001 36231.702037603 72232.702037603 2608808233.5416
vector 99  BasicTopology.peer[49].bitTorrentApp.bitTorrentClient  DownloadComplete_Test:vector  ETV
attr source BitTorrentClient_DownloadComplete_Test
attr title "Descargas completas (prueba), vector"
99	44974 67 183 212088705 36001 36211.011156505527 2 36001 36211.011156506 72212.011156506 2607309329.9766
vector 1633  BasicTopology.peer[0].bitTorrentApp.bitTorrentClient.contentManager_51  TotalBytesUploaded:vector  ETV
attr source ContentManager_TotalBytesUploaded
attr title "Total of Bytes Uploaded, vector"
attr unit B
1633	45041 11717 1374242 198276156 36002.624122393981 36192.702931438017 290 32768 9502720 1382645760 8.7743658563994e+15
vector 1640  BasicTopology.peer[1].bitTorrentApp.bitTorrentClient.contentManager_51  TotalBytesDownloaded:vector  ETV
attr source ContentManager_TotalBytesDownloaded
attr title "Total of Bytes Downloaded, vector"
attr unit B
1640	57177 3871 2124209 230538553 36004.234618026889 36238.733774719078 96 32768 3145728 152567808 3.2162433099366e+14
vector 1656  BasicTopology.peer[3].bitTorrentApp.bitTorrentClient.contentManager_51  TotalBytesDownloaded:vector  ETV
attr source ContentManager_TotalBytesDownloaded
attr title "Total of Bytes Downloaded, vector"
attr unit B
1656	84424 3895 2888726 186728261 36005.199843833589 36178.829156652563 96 32768 3145728 152567808 3.2162433099366e+14
vector 1712  BasicTopology.peer[10].bitTorrentApp.bitTorrentClient.contentManager_51  TotalBytesDownloaded:vector  ETV
attr source ContentManager_TotalBytesDownloaded
attr title "Total of Bytes Downloaded, vector"
attr unit B
1712	150694 4212 2914289 205254932 36005.274124454355 36201.649508429429 104 32768 3407872 178913280 4.0842991501312e+14
vector 1728  BasicTopology.peer[12].bitTorrentApp.bitTorrentClient.contentManager_51  TotalBytesDownloaded:vector  ETV
attr source ContentManager_TotalBytesDownloaded
attr title "Total of Bytes Downloaded, vector"
attr unit B
1728	180510 3893 3131613 224123570 36005.753195690004 36227.603014050206 96 32768 3145728 152567808 3.2162433099366e+14
vector 1655  BasicTopology.peer[3].bitTorrentApp.bitTorrentClient.contentManager_51  PiecesDownloaded:vector  ETV
attr source ContentManager_PieceDownloaded
attr title "Pieces Downloaded, vector"
1655	84002 422 3779230 186728261 36007.890909895033 36178.829156652563 12 0 11 66 506
vector 1657  BasicTopology.peer[3].bitTorrentApp.bitTorrentClient.contentManager_51  TotalBytesUploaded:vector  ETV
attr source ContentManager_TotalBytesUploaded
attr title "Total of Bytes Uploaded, vector"
attr unit B
1657	88319 10128 3797753 201569054 36007.923709810794 36196.838651078704 248 32768 8126464 1011744768 5.4923225737462e+15
vector 1664  BasicTopology.peer[4].bitTorrentApp.bitTorrentClient.contentManager_51  TotalBytesDownloaded:vector  ETV
attr source ContentManager_TotalBytesDownloaded
attr title "Total of Bytes Downloaded, vector"
attr unit B
1664	98870 3896 3815946 239056936 36007.97044330916 36305.700106299685 96 32768 3145728 152567808 3.2162433099366e+14
vector 1727  BasicTopology.peer[12].bitTorrentApp.bitTorrentClient.contentManager_51  PiecesDownloaded:vector  ETV
attr source ContentManager_PieceDownloaded
attr title "Pieces Downloaded, vector"
1727	180088 422 3901102 224123570 36008.205735882534 36227.603014050206 12 0 11 66 506
vector 1729  BasicTopology.peer[12].bitTorrentApp.bitTorrentClient.contentManager_51  TotalBytesUploaded:vector  ETV
attr source ContentManager_TotalBytesUploaded
attr title "Total of Bytes Uploaded, vector"
attr unit B
1729	184403 8900 3941260 172084785 36008.299650543781 36162.802592544288 218 32768 7143424 782204928 3.7336247340892e+15
vector 1711  BasicTopology.peer[10].bitTorrentApp.bitTorrentClient.contentManager_51  PiecesDownloaded:vector  ETV
attr source ContentManager_PieceDownloaded
attr title "Pieces Downloaded, vector"
1711	150275 419 4208247 116131739 36008.581982330646 36105.89866878456 12 0 11 66 506
vector 1713  BasicTopology.peer[10].bitTorrentApp.bitTorrentClient.contentManager_51  TotalBytesUploaded:vector  ETV
attr source ContentManager_TotalBytesUploaded
attr title "Total of Bytes Uploaded, vector"
attr unit B
1713	154906 14274 4252693 212459447 36008.610291306319 36211.389412972607 349 32768 11436032 2001305600 1.5279856182886e+16
vector 1663  BasicTopology.peer[4].bitTorrentApp.bitTorrentClient.contentManager_51  PiecesDownloaded:vector  ETV
attr source ContentManager_PieceDownloaded
attr title "Pieces Downloaded, vector"
1663	98447 423 4413444 239056936 36009.274868916815 36305.700106299685 12 0 11 66 506
vector 1665  BasicTopology.peer[4].bitTorrentApp.bitTorrentClient.contentManager_51  TotalBytesUploaded:vector  ETV
attr source ContentManager_TotalBytesUploaded
attr title "Total of Bytes Uploaded, vector"
attr unit B
1665	102766 8089 4422937 95841034 36009.316947541276 36089.313334455448 200 32768 6553600 658636800 2.8848221585408e+15
vector 1639  BasicTopology.peer[1].bitTorrentApp.bitTorrentClient.contentManager_51  PiecesDownloaded:vector  ETV
attr source ContentManager_PieceDownloaded
attr title "Pieces Downloaded, vector"
1639	56758 419 4484167 230538553 36009.615986051196 36238.733774719078 12 0 11 66 506
vector 1641  BasicTopology.peer[1].bitTorrentApp.bitTorrentClient.contentManager_51  TotalBytesUploaded:vector  ETV
attr source ContentManager_TotalBytesUploaded
attr title "Total of Bytes Uploaded, vector"
attr unit B
1641	61048 9212 4504395 230892836 36009.65538719243 36239.806694994756 226 32768 7405568 840531968 4.158925280641e+15
vector 1688  BasicTopology.peer[7].bitTorrentApp.bitTorrentClient.contentManager_51  TotalBytesDownloaded:vector  ETV
attr source ContentManager_TotalBytesDownloaded
attr title "Total of Bytes Downloaded, vector"
attr unit B
1688	122791 4512 4614029 218755429 36009.884767170769 36220.029712689422 110 32768 3604480 200048640 4.8289927921664e+14
vector 1648  BasicTopology.peer[2].bitTorrentApp.bitTorrentClient.contentManager_51  TotalBytesDownloaded:vector  ETV
attr source ContentManager_TotalBytesDownloaded
attr title "Total of Bytes Downloaded, vector"
attr unit B
1648	70679 3885 4652758 149525044 36009.981293551135 36138.211303922038 96 32768 3145728 152567808 3.2162433099366e+14
vector 1760  BasicTopology.peer[16].bitTorrentApp.bitTorrentClient.contentManager_51  TotalBytesDownloaded:vector  ETV
attr source ContentManager_TotalBytesDownloaded
attr title "Total of Bytes Downloaded, vector"
attr unit B
1760	222752 3914 5202422 213050078 36010.628093090976 36212.251179475739 96 32768 3145728 152567808 3.2162433099366e+14
vector 1720  BasicTopology.peer[11].bitTorrentApp.bitTorrentClient.contentManager_51  TotalBytesDownloaded:vector  ETV
attr source ContentManager_TotalBytesDownloaded
attr title "Total of Bytes Downloaded, vector"
attr unit B
1720	169604 3975 5608965 115037593 36011.41740067637 36104.946378926569 98 32768 3211264 158957568 3.4203938429338e+14
vector 1704  BasicTopology.peer[9].bitTorrentApp.bitTorrentClient.contentManager_51  TotalBytesDownloaded:vector  ETV
attr source ContentManager_TotalBytesDownloaded
attr title "Total of Bytes Downloaded, vector"
attr unit B
1704	144461 3954 5638261 235454212 36011.45845226735 36248.918996932907 96 32768 3145728 152567808 3.2162433099366e+14
vector 1647  BasicTopology.peer[2].bitTorrentApp.bitTorrentClient.contentManager_51  PiecesDownloaded:vector  ETV
attr source ContentManager_PieceDownloaded
attr title "Pieces Downloaded, vector"
1647	70260 419 5786085 149525044 36011.622546631948 36138.211303922038 12 0 11 66 506
vector 1649  BasicTopology.peer[2].bitTorrentApp.bitTorrentClient.contentManager_51  TotalBytesUploaded:vector  ETV
attr source ContentManager_TotalBytesUploaded
attr title "Total of Bytes Uploaded, vector"
attr unit B
1649	74564 9438 5841366 213488094 36011.713422830747 36212.739269265689 231 32768 7569408 878051328 4.4404764930212e+15
vector 1960  BasicTopology.peer[41].bitTorrentApp.bitTorrentClient.contentManager_51  TotalBytesDownloaded:vector  ETV
attr source ContentManager_TotalBytesDownloaded
attr title "Total of Bytes Downloaded, vector"
attr unit B
1960	402831 4999 6078987 214848520 36012.003483445392 36214.521674823329 122 32768 3997696 245858304 6.5792993394688e+14
vector 1992  BasicTopology.peer[45].bitTorrentApp.bitTorrentClient.contentManager_51  TotalBytesDownloaded:vector  ETV
attr source ContentManager_TotalBytesDownloaded
attr title "Total of Bytes Downloaded, vector"
attr unit B
1992	442844 4778 6768335 224262846 36013.103653989661 36227.82624957176 116 32768 3801088 222363648 5.659113333719e+14
vector 1776  BasicTopology.peer[18].bitTorrentApp.bitTorrentClient.contentManager_51  TotalBytesDownloaded:vector  ETV
attr source ContentManager_TotalBytesDownloaded
attr title "Total of Bytes Downloaded, vector"
attr unit B
1776	238858 3929 6876203 230690615 36013.192849188237 36239.190886354144 96 32768 3145728 152567808 3.2162433099366e+14
vector 1736  BasicTopology.peer[13].bitTorrentApp.bitTorrentClient.contentManager_51  TotalBytesDownloaded:vector  ETV
attr source ContentManager_TotalBytesDownloaded
attr title "Total of Bytes Downloaded, vector"
attr unit B
1736	193731 3934 6892943 216668540 36013.208302018176 36217.037452687107 96 32768 3145728 152567808 3.2162433099366e+14
vector 1719  BasicTopology.peer[11].bitTorrentApp.bitTorrentClient.contentManager_51  PiecesDownloaded:vector  ETV
attr source ContentManager_PieceDownloaded
attr title "Pieces Downloaded, vector"
1719	169180 424 7546839 115037593 36014.070973953864 36104.946378926569 12 0 11 66 506
vector 1721  BasicTopology.peer[11].bitTorrentApp.bitTorrentClient.contentManager_51  TotalBytesUploaded:vector  ETV
attr source ContentManager_TotalBytesUploaded
attr title "Total of Bytes Uploaded, vector"
attr unit B
1721	173579 6509 7620048 196782409 36014.15224704416 36191.03956239653 160 32768 5242880 422051840 1.4797880321638e+15
vector 1744  BasicTopology.peer[14].bitTorrentApp.bitTorrentClient.contentManager_51  TotalBytesDownloaded:vector  ETV
attr source ContentManager_TotalBytesDownloaded
attr title "Total of Bytes Downloaded, vector"
attr unit B
1744	205054 3933 7981602 223684616 36014.663083202546 36226.850913128472 96 32768 3145728 152567808 3.2162433099366e+14
vector 1976  BasicTopology.peer[43].bitTorrentApp.bitTorrentClient.contentManager_51  TotalBytesDownloaded:vector  ETV
attr source ContentManager_TotalBytesDownloaded
attr title "Total of Bytes Downloaded, vector"
attr unit B
1976	424066 4076 8162584 212848833 36014.991935116213 36211.956317106108 100 32768 3276800 165478400 3.633005461504e+14
vector 1792  BasicTopology.peer[20].bitTorrentApp.bitTorrentClient.contentManager_51  TotalBytesDownloaded:vector  ETV
attr source ContentManager_TotalBytesDownloaded
attr title "Total of Bytes Downloaded, vector"
attr unit B
1792	250453 3930 8312363 203648929 36015.219219863723 36199.581922456685 96 32768 3145728 152567808 3.2162433099366e+14
vector 1687  BasicTopology.peer[7].bitTorrentApp.bitTorrentClient.contentManager_51  PiecesDownloaded:vector  ETV
attr source ContentManager_PieceDownloaded
attr title "Pieces Downloaded, vector"
1687	122366 425 8406471 218755429 36015.361433768198 36220.029712689422 12 0 11 66 506
vector 1689  BasicTopology.peer[7].bitTorrentApp.bitTorrentClient.contentManager_51  TotalBytesUploaded:vector  ETV
attr source ContentManager_TotalBytesUploaded
attr title "Total of Bytes Uploaded, vector"
attr unit B
1689	127303 7110 8431235 176361596 36015.392144656923 36167.527240467914 175 32768 5734400 504627200 1.9346680184832e+15
vector 1775  BasicTopology.peer[18].bitTorrentApp.bitTorrentClient.contentManager_51  PiecesDownloaded:vector  ETV
attr source ContentManager_PieceDownloaded
attr title "Pieces Downloaded, vector"
1775	238430 428 9064042 230690615 36016.284534636575 36239.190886354144 12 0 11 66 506
vector 1777  BasicTopology.peer[18].bitTorrentApp.bitTorrentClient.contentManager_51  TotalBytesUploaded:vector  ETV
attr source ContentManager_TotalBytesUploaded
attr title "Total of Bytes Uploaded, vector"
attr unit B
1777	242787 1262 9099734 13362940 36016.318015541914 36020.609141577241 32 32768 1048576 17301504 12283606466560
vector 1680  BasicTopology.peer[6].bitTorrentApp.bitTorrentClient.contentManager_51  TotalBytesDownloaded:vector  ETV
attr source ContentManager_TotalBytesDownloaded
attr title "Total of Bytes Downloaded, vector"
attr unit B
1680	116864 3928 9510950 236351749 36016.645252272065 36253.316265712785 96 32768 3145728 152567808 3.2162433099366e+14
vector 1959  BasicTopology.peer[41].bitTorrentApp.bitTorrentClient.contentManager_51  PiecesDownloaded:vector  ETV
attr source ContentManager_PieceDownloaded
attr title "Pieces Downloaded, vector"
1959	402408 423 9792421 193415981 36016.951322358305 36186.822200084474 12 0 11 66 506
vector 1961  BasicTopology.peer[41].bitTorrentApp.bitTorrentClient.contentManager_51  TotalBytesUploaded:vector  ETV
attr source ContentManager_TotalBytesUploaded
attr title "Total of Bytes Uploaded, vector"
attr unit B
1961	407830 5943 9839956 123167313 36017.002647485326 36112.271254218696 146 32768 4784128 351633408 1.1253469298033e+15
vector 1968  BasicTopology.peer[42].bitTorrentApp.bitTorrentClient.contentManager_51  TotalBytesDownloaded:vector  ETV
attr source ContentManager_TotalBytesDownloaded
attr title "Total of Bytes Downloaded, vector"
attr unit B
1968	414196 3937 9866869 124656417 36017.036454763546 36113.686795689374 97 32768 3178496 155746304 3.3172716781568e+14
vector 1696  BasicTopology.peer[8].bitTorrentApp.bitTorrentClient.contentManager_51  TotalBytesDownloaded:vector  ETV
attr source ContentManager_TotalBytesDownloaded
attr title "Total of Bytes Downloaded, vector"
attr unit B
1696	134841 3934 10161155 217921028 36017.475976506763 36218.958267840376 96 32768 3145728 152567808 3.2162433099366e+14
vector 1672  BasicTopology.peer[5].bitTorrentApp.bitTorrentClient.contentManager_51  TotalBytesDownloaded:vector  ETV
attr source ContentManager_TotalBytesDownloaded
attr title "Total of Bytes Downloaded, vector"
attr unit B
1672	111284 3935 10212281 204286508 36017.535314322989 36200.43104970439 96 32768 3145728 152567808 3.2162433099366e+14
vector 1975  BasicTopology.peer[43].bitTorrentApp.bitTorrentClient.contentManager_51  PiecesDownloaded:vector  ETV
attr source ContentManager_PieceDownloaded
attr title "Pieces Downloaded, vector"
1975	423643 423 10429016 201857118 36017.781307415308 36197.190380166985 12 0 11 66 506
vector 1977  BasicTopology.peer[43].bitTorrentApp.bitTorrentClient.contentManager_51  TotalBytesUploaded:vector  ETV
attr source ContentManager_TotalBytesUploaded
attr title "Total of Bytes Uploaded, vector"
attr unit B
1977	428142 6733 10452148 133336025 36017.806709928707 36122.011857501972 165 32768 5406720 448757760 1.6224400021914e+15