file 471028 1593887685                                          
version 2
run Test-16-20200525-12:23:58-6756
attr configname Test
attr datetime 20200525-12:23:58
attr experiment "\"Simulation Test\""
attr inifile BasicConfig.ini
attr iterationvars ""
attr iterationvars2 $repetition=16
attr measurement "\"Peers: $peers, Rate: $rate\""
attr network BasicTopology
attr processid 6756
attr repetition 16
attr replication #16
attr resultdir results
attr runnumber 16
attr seedset 16
vector 3  BasicTopology.peer[1].bitTorrentApp.bitTorrentClient  DownloadComplete_Test:vector  ETV
attr source BitTorrentClient_DownloadComplete_Test
attr title "Descargas completas (prueba), vector"
3	41999 64 135 51450679 36001 36054.446908194132 2 36001 36054.446908194 72055.446908194 2595995142.8558
vector 5  BasicTopology.peer[2].bitTorrentApp.bitTorrentClient  DownloadComplete_Test:vector  ETV
attr source BitTorrentClient_DownloadComplete_Test
attr title "Descargas completas (prueba), vector"
5	42063 65 136 142673156 36001 36127.561838325208 2 36001 36127.561838325 72128.561838325 2601272725.382
vector 7  BasicTopology.peer[3].bitTorrentApp.bitTorrentClient  DownloadComplete_Test:vector  ETV
attr source BitTorrentClient_DownloadComplete_Test
attr title "Descargas completas (prueba), vector"
7	42128 65 137 204359419 36001 36195.497239247926 2 36001 36195.497239248 72196.497239248 2606186021.3964
vector 9  BasicTopology.peer[4].bitTorrentApp.bitTorrentClient  DownloadComplete_Test:vector  ETV
attr source BitTorrentClient_DownloadComplete_Test
attr title "Descargas completas (prueba), vector"
9	42193 65 138 190800138 36001 36179.161461942114 2 36001 36179.161461942 72180.161461942 2605003725.0893
vector 11  BasicTopology.peer[5].bitTorrentApp.bitTorrentClient  DownloadComplete_Test:vector  ETV
attr source BitTorrentClient_DownloadComplete_Test
attr title "Descargas completas (prueba), vector"
11	42258 67 139 169994133 36001 36155.834430037868 2 36001 36155.834430038 72156.834430038 2603316364.3323
vector 13  BasicTopology.peer[6].bitTorrentApp.bitTorrentClient  DownloadComplete_Test:vector  ETV
attr source BitTorrentClient_DownloadComplete_Test
attr title "Descargas completas (prueba), vector"
13	42325 67 140 226461263 36001 36228.199317216711 2 36001 36228.199317217 72229.199317217 2608554426.768
vector 15  BasicTopology.peer[7].bitTorrentApp.bitTorrentClient  DownloadComplete_Test:vector  ETV
attr source BitTorrentClient_DownloadComplete_Test
attr title "Descargas completas (prueba), vector"
15	42392 67 141 224584615 36001 36224.884857648334 2 36001 36224.884857648 72225.884857648 2608314283.9499
vector 17  BasicTopology.peer[8].bitTorrentApp.bitTorrentClient  DownloadComplete_Test:vector  ETV
attr source BitTorrentClient_DownloadComplete_Test
attr title "Descargas completas (prueba), vector"
17	42459 67 142 206132697 36001 36197.598960156643 2 36001 36197.598960157 72198.598960157 2606338171.4804
vector 19  BasicTopology.peer[9].bitTorrentApp.bitTorrentClient  DownloadComplete_Test:vector  ETV
attr source BitTorrentClient_DownloadComplete_Test
attr title "Descargas completas (prueba), vector"
19	42526 67 143 204696011 36001 36195.970853554543 2 36001 36195.970853555 72196.970853555 2606220307.0314
vector 21  BasicTopology.peer[10].bitTorrentApp.bitTorrentClient  DownloadComplete_Test:vector  ETV
attr source BitTorrentClient_DownloadComplete_Test
attr title "Descargas completas (prueba), vector"
21	42593 66 144 44430305 36001 36049.001925667417 2 36001 36049.001925667 72050.001925667 2595602540.8367
vector 23  BasicTopology.peer[11].bitTorrentApp.bitTorrentClient  DownloadComplete_Test:vector  ETV
attr source BitTorrentClient_DownloadComplete_Test
attr title "Descargas completas (prueba), vector"
23	42659 67 145 172546595 36001 36158.584581311676 2 36001 36158.584581312 72159.584581312 2603515239.9239
vector 25  BasicTopology.peer[12].bitTorrentApp.bitTorrentClient  DownloadComplete_Test:vector  ETV
attr source BitTorrentClient_DownloadComplete_Test
attr title "Descargas completas (prueba), vector"
25	42726 65 146 166335131 36001 36151.36339924965 2 36001 36151.36339925 72152.36339925 2602993076.6246
vector 27  BasicTopology.peer[13].bitTorrentApp.bitTorrentClient  DownloadComplete_Test:vector  ETV
attr source BitTorrentClient_DownloadComplete_Test
attr title "Descargas completas (prueba), vector"
27	42791 67 147 231103702 36001 36319.770678575872 2 36001 36319.770678576 72320.770678576 2615197743.1443
vector 29  BasicTopology.peer[14].bitTorrentApp.bitTorrentClient  DownloadComplete_Test:vector  ETV
attr source BitTorrentClient_DownloadComplete_Test
attr title "Descargas completas (prueba), vector"
29	42858 67 148 221429736 36001 36219.994316783704 2 36001 36219.994316784 72220.994316784 2607959989.3079
vector 31  BasicTopology.peer[15].bitTorrentApp.bitTorrentClient  DownloadComplete_Test:vector  ETV
attr source BitTorrentClient_DownloadComplete_Test
attr title "Descargas completas (prueba), vector"
31	42925 67 149 215654367 36001 36211.199098928279 2 36001 36211.199098928 72212.199098928 2607322941.1822
vector 33  BasicTopology.peer[16].bitTorrentApp.bitTorrentClient  DownloadComplete_Test:vector  ETV
attr source BitTorrentClient_DownloadComplete_Test
attr title "Descargas completas (prueba), vector"
33	42992 67 150 162579500 36001 36146.921304181906 2 36001 36146.921304182 72147.921304182 2602671920.7707
vector 35  BasicTopology.peer[17].bitTorrentApp.bitTorrentClient  DownloadComplete_Test:vector  ETV
attr source BitTorrentClient_DownloadComplete_Test
attr title "Descargas completas (prueba), vector"
35	43059 67 151 225701083 36001 36226.832843541295 2 36001 36226.832843541 72227.832843541 2608455418.8739
vector 37  BasicTopology.peer[18].bitTorrentApp.bitTorrentClient  DownloadComplete_Test:vector  ETV
attr source BitTorrentClient_DownloadComplete_Test
attr title "Descargas completas (prueba), vector"
37	43126 67 152 197893561 36001 36187.697578092852 2 36001 36187.697578093 72188.697578093 2605621457.0035
vector 39  BasicTopology.peer[19].bitTorrentApp.bitTorrentClient  DownloadComplete_Test:vector  ETV
attr source BitTorrentClient_DownloadComplete_Test
attr title "Descargas completas (prueba), vector"
39	43193 67 153 195234676 36001 36184.791475047578 2 36001 36184.791475048 72185.791475048 2605411135.0927
vector 41  BasicTopology.peer[20].bitTorrentApp.bitTorrentClient  DownloadComplete_Test:vector  ETV
attr source BitTorrentClient_DownloadComplete_Test
attr title "Descargas completas (prueba), vector"
41	43260 67 154 225760019 36001 36226.901508746441 2 36001 36226.901508746 72227.901508746 2608460393.9244
vector 43  BasicTopology.peer[21].bitTorrentApp.bitTorrentClient  DownloadComplete_Test:vector  ETV
attr source BitTorrentClient_DownloadComplete_Test
attr title "Descargas completas (prueba), vector"
43	43327 66 155 195258017 36001 36184.811165540315 2 36001 36184.81116554 72185.81116554 2605412560.0858
vector 45  BasicTopology.peer[22].bitTorrentApp.bitTorrentClient  DownloadComplete_Test:vector  ETV
attr source BitTorrentClient_DownloadComplete_Test
attr title "Descargas completas (prueba), vector"
45	43393 67 156 222410786 36001 36221.398416639327 2 36001 36221.398416639 72222.398416639 2608061704.2569
vector 47  BasicTopology.peer[23].bitTorrentApp.bitTorrentClient  DownloadComplete_Test:vector  ETV
attr source BitTorrentClient_DownloadComplete_Test
attr title "Descargas completas (prueba), vector"
47	43460 67 157 210637428 36001 36203.842960656728 2 36001 36203.842960657 72204.842960657 2606790246.1199
vector 49  BasicTopology.peer[24].bitTorrentApp.bitTorrentClient  DownloadComplete_Test:vector  ETV
attr source BitTorrentClient_DownloadComplete_Test
attr title "Descargas completas (prueba), vector"
49	43527 67 158 200625245 36001 36190.962706331623 2 36001 36190.962706332 72191.962706332 2605857782.6111
vector 51  BasicTopology.peer[25].bitTorrentApp.bitTorrentClient  DownloadComplete_Test:vector  ETV
attr source BitTorrentClient_DownloadComplete_Test
attr title "Descargas completas (prueba), vector"
51	43594 67 159 220234406 36001 36218.213770710565 2 36001 36218.213770711 72219.213770711 2607831009.7409
vector 53  BasicTopology.peer[26].bitTorrentApp.bitTorrentClient  DownloadComplete_Test:vector  ETV
attr source BitTorrentClient_DownloadComplete_Test
attr title "Descargas completas (prueba), vector"
53	43661 67 160 208901328 36001 36201.250923382721 2 36001 36201.250923383 72202.250923383 2606602569.4177
vector 55  BasicTopology.peer[27].bitTorrentApp.bitTorrentClient  DownloadComplete_Test:vector  ETV
attr source BitTorrentClient_DownloadComplete_Test
attr title "Descargas completas (prueba), vector"
55	43728 67 161 159918080 36001 36144.161562231611 2 36001 36144.161562232 72145.161562232 2602472416.0367
vector 57  BasicTopology.peer[28].bitTorrentApp.bitTorrentClient  DownloadComplete_Test:vector  ETV
attr source BitTorrentClient_DownloadComplete_Test
attr title "Descargas completas (prueba), vector"
57	43795 67 162 202605740 36001 36193.336456854925 2 36001 36193.336456855 72194.336456855 2606029604.8791
vector 59  BasicTopology.peer[29].bitTorrentApp.bitTorrentClient  DownloadComplete_Test:vector  ETV
attr source BitTorrentClient_DownloadComplete_Test
attr title "Descargas completas (prueba), vector"
59	43862 67 163 177787060 36001 36164.488992918385 2 36001 36164.488992918 72165.488992918 2603942265.1189
vector 61  BasicTopology.peer[30].bitTorrentApp.bitTorrentClient  DownloadComplete_Test:vector  ETV
attr source BitTorrentClient_DownloadComplete_Test
attr title "Descargas completas (prueba), vector"
61	43929 67 164 230610386 36001 36305.837401776196 2 36001 36305.837401776 72306.837401776 2614185830.4442
vector 63  BasicTopology.peer[31].bitTorrentApp.bitTorrentClient  DownloadComplete_Test:vector  ETV
attr source BitTorrentClient_DownloadComplete_Test
attr title "Descargas completas (prueba), vector"
63	43996 67 165 207429717 36001 36199.489481663321 2 36001 36199.489481663 72200.489481663 2606475039.733
vector 65  BasicTopology.peer[32].bitTorrentApp.bitTorrentClient  DownloadComplete_Test:vector  ETV
attr source BitTorrentClient_DownloadComplete_Test
attr title "Descargas completas (prueba), vector"
65	44063 67 166 230319348 36001 36302.766041445188 2 36001 36302.766041445 72303.766041445 2613962823.2599
vector 67  BasicTopology.peer[33].bitTorrentApp.bitTorrentClient  DownloadComplete_Test:vector  ETV
attr source BitTorrentClient_DownloadComplete_Test
attr title "Descargas completas (prueba), vector"
67	44130 66 167 192911015 36001 36181.91732007641 2 36001 36181.917320076 72182.917320076 2605203141.9568
vector 69  BasicTopology.peer[34].bitTorrentApp.bitTorrentClient  DownloadComplete_Test:vector  ETV
attr source BitTorrentClient_DownloadComplete_Test
attr title "Descargas completas (prueba), vector"
69	44196 67 168 222347944 36001 36221.313349901978 2 36001 36221.313349902 72222.313349902 2608055541.7918
vector 71  BasicTopology.peer[35].bitTorrentApp.bitTorrentClient  DownloadComplete_Test:vector  ETV
attr source BitTorrentClient_DownloadComplete_Test
attr title "Descargas completas (prueba), vector"
71	44263 67 169 226250466 36001 36227.870978077576 2 36001 36227.870978078 72228.870978078 2608530636.6043
vector 73  BasicTopology.peer[36].bitTorrentApp.bitTorrentClient  DownloadComplete_Test:vector  ETV
attr source BitTorrentClient_DownloadComplete_Test
attr title "Descargas completas (prueba), vector"
73	44330 67 170 205697789 36001 36197.066774886464 2 36001 36197.066774886 72198.066774886 2606299644.1056
vector 75  BasicTopology.peer[37].bitTorrentApp.bitTorrentClient  DownloadComplete_Test:vector  ETV
attr source BitTorrentClient_DownloadComplete_Test
attr title "Descargas completas (prueba), vector"
75	44397 66 171 218045179 36001 36214.95447404893 2 36001 36214.954474049 72215.954474049 2607594928.5574
vector 77  BasicTopology.peer[38].bitTorrentApp.bitTorrentClient  DownloadComplete_Test:vector  ETV
attr source BitTorrentClient_DownloadComplete_Test
attr title "Descargas completas (prueba), vector"
77	44463 65 172 227007805 36001 36229.120905599819 2 36001 36229.1209056 72230.1209056 2608621202.5926
vector 79  BasicTopology.peer[39].bitTorrentApp.bitTorrentClient  DownloadComplete_Test:vector  ETV
attr source BitTorrentClient_DownloadComplete_Test
attr title "Descargas completas (prueba), vector"
79	44528 67 173 220928119 36001 36219.345445937314 2 36001 36219.345445937 72220.345445937 2607912985.5321
vector 81  BasicTopology.peer[40].bitTorrentApp.bitTorrentClient  DownloadComplete_Test:vector  ETV
attr source BitTorrentClient_DownloadComplete_Test
attr title "Descargas completas (prueba), vector"
81	44595 66 174 222103838 36001 36221.04806271208 2 36001 36221.048062712 72222.048062712 2608036323.7613
vector 83  BasicTopology.peer[41].bitTorrentApp.bitTorrentClient  DownloadComplete_Test:vector  ETV
attr source BitTorrentClient_DownloadComplete_Test
attr title "Descargas completas (prueba), vector"
83	44661 67 175 212772090 36001 36207.206662815836 2 36001 36207.206662816 72208.206662816 2607033815.3239
vector 85  BasicTopology.peer[42].bitTorrentApp.bitTorrentClient  DownloadComplete_Test:vector  ETV
attr source BitTorrentClient_DownloadComplete_Test
attr title "Descargas completas (prueba), vector"
85	44728 67 176 207046378 36001 36198.918846384972 2 36001 36198.918846385 72199.918846385 2606433726.6472
vector 87  BasicTopology.peer[43].bitTorrentApp.bitTorrentClient  DownloadComplete_Test:vector  ETV
attr source BitTorrentClient_DownloadComplete_Test
attr title "Descargas completas (prueba), vector"
87	44795 67 177 140250135 36001 36125.368275614521 2 36001 36125.368275615 72126.368275615 2601114234.0488
vector 89  BasicTopology.peer[44].bitTorrentApp.bitTorrentClient  DownloadComplete_Test:vector  ETV
attr source BitTorrentClient_DownloadComplete_Test
attr title "Descargas completas (prueba), vector"
89	44862 67 178 206041043 36001 36197.489833286219 2 36001 36197.489833286 72198.489833286 2606330271.2308
vector 91  BasicTopology.peer[45].bitTorrentApp.bitTorrentClient  DownloadComplete_Test:vector  ETV
attr source BitTorrentClient_DownloadComplete_Test
attr title "Descargas completas (prueba), vector"
91	44929 67 179 227941411 36001 36230.746021461843 2 36001 36230.746021462 72231.746021462 2608738958.2717
vector 93  BasicTopology.peer[46].bitTorrentApp.bitTorrentClient  DownloadComplete_Test:vector  ETV
attr source BitTorrentClient_DownloadComplete_Test
attr title "Descargas completas (prueba), vector"
93	44996 67 180 218545887 36001 36215.697640831711 2 36001 36215.697640832 72216.697640832 2607648756.6122
vector 95  BasicTopology.peer[47].bitTorrentApp.bitTorrentClient  DownloadComplete_Test:vector  ETV
attr source BitTorrentClient_DownloadComplete_Test
attr title "Descargas completas (prueba), vector"
95	45063 67 181 199220950 36001 36189.312760877703 2 36001 36189.312760878 72190.312760878 2605738359.1046
vector 97  BasicTopology.peer[48].bitTorrentApp.bitTorrentClient  DownloadComplete_Test:vector  ETV
attr source BitTorrentClient_DownloadComplete_Test
attr title "Descargas completas (prueba), vector"
97	45130 67 182 200253286 36001 36190.543609957931 2 36001 36190.543609958 72191.543609958 2605827447.7843
vector 99  BasicTopology.peer[49].bitTorrentApp.bitTorrentClient  DownloadComplete_Test:vector  ETV
attr source BitTorrentClient_DownloadComplete_Test
attr title "Descargas completas (prueba), vector"
99	45197 67 183 178399236 36001 36165.282939456901 2 36001 36165.282939457 72166.282939457 2603999691.091
vector 1633  BasicTopology.peer[0].bitTorrentApp.bitTorrentClient.contentManager_51  TotalBytesUploaded:vector  ETV
attr source ContentManager_TotalBytesUploaded
attr title "Total of Bytes Uploaded, vector"
attr unit B
1633	45264 11297 1906802 230029569 36004.064431530887 36301.12456371314 278 32768 9109504 1270775808 7.7313051312783e+15
vector 1728  BasicTopology.peer[12].bitTorrentApp.bitTorrentClient.contentManager_51  TotalBytesDownloaded:vector  ETV
attr source ContentManager_TotalBytesDownloaded
attr title "Total of Bytes Downloaded, vector"
attr unit B
1728	179517 3891 2217279 166335131 36004.254085461377 36151.36339924965 96 32768 3145728 152567808 3.2162433099366e+14
vector 1712  BasicTopology.peer[10].bitTorrentApp.bitTorrentClient.contentManager_51  TotalBytesDownloaded:vector  ETV
attr source ContentManager_TotalBytesDownloaded
attr title "Total of Bytes Downloaded, vector"
attr unit B
1712	145479 3875 2925769 44430305 36005.472385260502 36049.001925667417 96 32768 3145728 152567808 3.2162433099366e+14
vector 1776  BasicTopology.peer[18].bitTorrentApp.bitTorrentClient.contentManager_51  TotalBytesDownloaded:vector  ETV
attr source ContentManager_TotalBytesDownloaded
attr title "Total of Bytes Downloaded, vector"
attr unit B
1776	228430 3926 3177236 197893561 36006.31129748406 36187.697578092852 96 32768 3145728 152567808 3.2162433099366e+14
vector 1640  BasicTopology.peer[1].bitTorrentApp.bitTorrentClient.contentManager_51  TotalBytesDownloaded:vector  ETV
attr source ContentManager_TotalBytesDownloaded
attr title "Total of Bytes Downloaded, vector"
attr unit B
1640	56977 3863 3598934 51450679 36007.110545283243 36054.446908194132 96 32768 3145728 152567808 3.2162433099366e+14
vector 1711  BasicTopology.peer[10].bitTorrentApp.bitTorrentClient.contentManager_51  PiecesDownloaded:vector  ETV
attr source ContentManager_PieceDownloaded
attr title "Pieces Downloaded, vector"
1711	145058 421 3905371 44430305 36007.974252589565 36049.001925667417 12 0 11 66 506
vector 1713  BasicTopology.peer[10].bitTorrentApp.bitTorrentClient.contentManager_51  TotalBytesUploaded:vector  ETV
attr source ContentManager_TotalBytesUploaded
attr title "Total of Bytes Uploaded, vector"
attr unit B
1713	149354 13260 3929491 223974880 36008.032545010194 36224.026877769819 325 32768 10649600 1735884800 1.2343279668429e+16
vector 1639  BasicTopology.peer[1].bitTorrentApp.bitTorrentClient.contentManager_51  PiecesDownloaded:vector  ETV
attr source ContentManager_PieceDownloaded
attr title "Pieces Downloaded, vector"
1639	56561 416 4050089 51450679 36008.497425674532 36054.446908194132 12 0 11 66 506
vector 1641  BasicTopology.peer[1].bitTorrentApp.bitTorrentClient.contentManager_51  TotalBytesUploaded:vector  ETV
attr source ContentManager_TotalBytesUploaded
attr title "Total of Bytes Uploaded, vector"
attr unit B
1641	60840 10563 4251221 219370034 36008.587332046161 36216.95818738473 259 32768 8486912 1103298560 6.2544494880358e+15
vector 1696  BasicTopology.peer[8].bitTorrentApp.bitTorrentClient.contentManager_51  TotalBytesDownloaded:vector  ETV
attr source ContentManager_TotalBytesDownloaded
attr title "Total of Bytes Downloaded, vector"
attr unit B
1696	126300 4301 4387085 216661997 36008.808706365105 36212.810532206649 105 32768 3440640 182353920 4.2026791862272e+14
vector 1727  BasicTopology.peer[12].bitTorrentApp.bitTorrentClient.contentManager_51  PiecesDownloaded:vector  ETV
attr source ContentManager_PieceDownloaded
attr title "Pieces Downloaded, vector"
1727	179096 421 4475325 166335131 36008.983203864004 36151.36339924965 12 0 11 66 506
vector 1729  BasicTopology.peer[12].bitTorrentApp.bitTorrentClient.contentManager_51  TotalBytesUploaded:vector  ETV
attr source ContentManager_TotalBytesUploaded
attr title "Total of Bytes Uploaded, vector"
attr unit B
1729	183408 11389 4504231 211891823 36009.027453032129 36205.686887002378 280 32768 9175040 1289093120 7.8990676276019e+15
vector 1736  BasicTopology.peer[13].bitTorrentApp.bitTorrentClient.contentManager_51  TotalBytesDownloaded:vector  ETV
attr source ContentManager_TotalBytesDownloaded
attr title "Total of Bytes Downloaded, vector"
attr unit B
1736	195226 3923 4575774 231103702 36009.187166525078 36319.770678575872 96 32768 3145728 152567808 3.2162433099366e+14
vector 1735  BasicTopology.peer[13].bitTorrentApp.bitTorrentClient.contentManager_51  PiecesDownloaded:vector  ETV
attr source ContentManager_PieceDownloaded
attr title "Pieces Downloaded, vector"
1735	194797 429 4815279 231103702 36009.692021884879 36319.770678575872 12 0 11 66 506
vector 1737  BasicTopology.peer[13].bitTorrentApp.bitTorrentClient.contentManager_51  TotalBytesUploaded:vector  ETV
attr source ContentManager_TotalBytesUploaded
attr title "Total of Bytes Uploaded, vector"
attr unit B
1737	199149 4855 4840892 164013374 36009.730520097144 36148.636251395067 120 32768 3932160 237895680 6.2622770659328e+14
vector 1648  BasicTopology.peer[2].bitTorrentApp.bitTorrentClient.contentManager_51  TotalBytesDownloaded:vector  ETV
attr source ContentManager_TotalBytesDownloaded
attr title "Total of Bytes Downloaded, vector"
attr unit B
1648	71831 3917 5272298 142673156 36010.18842332082 36127.561838325208 96 32768 3145728 152567808 3.2162433099366e+14
vector 1664  BasicTopology.peer[4].bitTorrentApp.bitTorrentClient.contentManager_51  TotalBytesDownloaded:vector  ETV
attr source ContentManager_TotalBytesDownloaded
attr title "Total of Bytes Downloaded, vector"
attr unit B
1664	93324 3934 5366457 190800138 36010.487682989592 36179.161461942114 96 32768 3145728 152567808 3.2162433099366e+14
vector 1680  BasicTopology.peer[6].bitTorrentApp.bitTorrentClient.contentManager_51  TotalBytesDownloaded:vector  ETV
attr source ContentManager_TotalBytesDownloaded
attr title "Total of Bytes Downloaded, vector"
attr unit B
1680	113093 3935 5540364 226461263 36010.93129461449 36228.199317216711 96 32768 3145728 152567808 3.2162433099366e+14
vector 1656  BasicTopology.peer[3].bitTorrentApp.bitTorrentClient.contentManager_51  TotalBytesDownloaded:vector  ETV
attr source ContentManager_TotalBytesDownloaded
attr title "Total of Bytes Downloaded, vector"
attr unit B
1656	80938 3952 5597404 204359419 36011.074306794512 36195.497239247926 97 32768 3178496 155746304 3.3172716781568e+14
vector 1752  BasicTopology.peer[15].bitTorrentApp.bitTorrentClient.contentManager_51  TotalBytesDownloaded:vector  ETV
attr source ContentManager_TotalBytesDownloaded
attr title "Total of Bytes Downloaded, vector"
attr unit B
1752	211949 3927 5679302 215654367 36011.233123296769 36211.199098928279 96 32768 3145728 152567808 3.2162433099366e+14
vector 1720  BasicTopology.peer[11].bitTorrentApp.bitTorrentClient.contentManager_51  TotalBytesDownloaded:vector  ETV
attr source ContentManager_TotalBytesDownloaded
attr title "Total of Bytes Downloaded, vector"
attr unit B
1720	163039 3915 5826439 172546595 36011.490376080393 36158.584581311676 96 32768 3145728 152567808 3.2162433099366e+14
vector 1751  BasicTopology.peer[15].bitTorrentApp.bitTorrentClient.contentManager_51  PiecesDownloaded:vector  ETV
attr source ContentManager_PieceDownloaded
attr title "Pieces Downloaded, vector"
1751	211519 430 6042887 215654367 36011.746546541025 36211.199098928279 12 0 11 66 506
vector 1753  BasicTopology.peer[15].bitTorrentApp.bitTorrentClient.contentManager_51  TotalBytesUploaded:vector  ETV
attr source ContentManager_TotalBytesUploaded
attr title "Total of Bytes Uploaded, vector"
attr unit B
1753	215876 2227 6054320 10616721 36011.759602326501 36017.262919306079 56 32768 1835008 52297728 64549063491584
vector 1672  BasicTopology.peer[5].bitTorrentApp.bitTorrentClient.contentManager_51  TotalBytesDownloaded:vector  ETV
attr source ContentManager_TotalBytesDownloaded
attr title "Total of Bytes Downloaded, vector"
attr unit B
1672	100545 4261 6511764 210959923 36012.345646652951 36204.348077669889 104 32768 3407872 178913280 4.0842991501312e+14
vector 1792  BasicTopology.peer[20].bitTorrentApp.bitTorrentClient.contentManager_51  TotalBytesDownloaded:vector  ETV
attr source ContentManager_TotalBytesDownloaded
attr title "Total of Bytes Downloaded, vector"
attr unit B
1792	242254 4544 6810834 225760019 36012.786519823036 36226.901508746441 112 32768 3670016 207355904 5.095978696704e+14
vector 1719  BasicTopology.peer[11].bitTorrentApp.bitTorrentClient.contentManager_51  PiecesDownloaded:vector  ETV
attr source ContentManager_PieceDownloaded
attr title "Pieces Downloaded, vector"
1719	162614 425 6898432 172546595 36012.916085404793 36158.584581311676 12 0 11 66 506
vector 1984  BasicTopology.peer[44].bitTorrentApp.bitTorrentClient.contentManager_51  TotalBytesDownloaded:vector  ETV
attr source ContentManager_TotalBytesDownloaded
attr title "Total of Bytes Downloaded, vector"
attr unit B
1984	436145 3968 7169359 206041043 36013.182640753224 36197.489833286219 96 32768 3145728 152567808 3.2162433099366e+14
vector 1824  BasicTopology.peer[24].bitTorrentApp.bitTorrentClient.contentManager_51  TotalBytesDownloaded:vector  ETV
attr source ContentManager_TotalBytesDownloaded
attr title "Total of Bytes Downloaded, vector"
attr unit B
1824	277423 3931 7301965 200625245 36013.32028814571 36190.962706331623 96 32768 3145728 152567808 3.2162433099366e+14
vector 1704  BasicTopology.peer[9].bitTorrentApp.bitTorrentClient.contentManager_51  TotalBytesDownloaded:vector  ETV
attr source ContentManager_TotalBytesDownloaded
attr title "Total of Bytes Downloaded, vector"
attr unit B
1704	137189 4611 7353228 204696011 36013.373829280192 36195.970853554543 112 32768 3670016 207355904 5.095978696704e+14
vector 2000  BasicTopology.peer[46].bitTorrentApp.bitTorrentClient.contentManager_51  TotalBytesDownloaded:vector  ETV
attr source ContentManager_TotalBytesDownloaded
attr title "Total of Bytes Downloaded, vector"
attr unit B
2000	446531 4002 7537098 218545887 36013.576305313137 36215.697640831711 97 32768 3178496 155746304 3.3172716781568e+14
vector 1647  BasicTopology.peer[2].bitTorrentApp.bitTorrentClient.contentManager_51  PiecesDownloaded:vector  ETV
attr source ContentManager_PieceDownloaded
attr title "Pieces Downloaded, vector"
1647	71403 428 7661513 142673156 36013.716361131923 36127.561838325208 12 0 11 66 506
vector 1655  BasicTopology.peer[3].bitTorrentApp.bitTorrentClient.contentManager_51  PiecesDownloaded:vector  ETV
attr source ContentManager_PieceDownloaded
attr title "Pieces Downloaded, vector"
1655	80513 425 7708141 204359419 36013.766938728077 36195.497239247926 12 0 11 66 506
vector 1657  BasicTopology.peer[3].bitTorrentApp.bitTorrentClient.contentManager_51  TotalBytesUploaded:vector  ETV
attr source ContentManager_TotalBytesUploaded
attr title "Total of Bytes Uploaded, vector"
attr unit B
1657	84890 8005 7754252 117808458 36013.816547241535 36105.455048639308 197 32768 6455296 639074304 2.7572562611405e+15
vector 1976  BasicTopology.peer[43].bitTorrentApp.bitTorrentClient.contentManager_51  TotalBytesDownloaded:vector  ETV
attr source ContentManager_TotalBytesDownloaded
attr title "Total of Bytes Downloaded, vector"
attr unit B
1976	421960 3918 7826889 140250135 36013.913649262222 36125.368275614521 96 32768 3145728 152567808 3.2162433099366e+14
vector 1768  BasicTopology.peer[17].bitTorrentApp.bitTorrentClient.contentManager_51  TotalBytesDownloaded:vector  ETV
attr source ContentManager_TotalBytesDownloaded
attr title "Total of Bytes Downloaded, vector"
attr unit B
1768	223551 3931 8073181 225701083 36014.312192834499 36226.832843541295 96 32768 3145728 152567808 3.2162433099366e+14
vector 1808  BasicTopology.peer[22].bitTorrentApp.bitTorrentClient.contentManager_51  TotalBytesDownloaded:vector  ETV
attr source ContentManager_TotalBytesDownloaded
attr title "Total of Bytes Downloaded, vector"
attr unit B
1808	262292 3941 8366895 222410786 36014.651142718308 36221.398416639327 96 32768 3145728 152567808 3.2162433099366e+14
vector 1760  BasicTopology.peer[16].bitTorrentApp.bitTorrentClient.contentManager_51  TotalBytesDownloaded:vector  ETV
attr source ContentManager_TotalBytesDownloaded
attr title "Total of Bytes Downloaded, vector"
attr unit B
1760	218531 3941 8768441 162579500 36015.123878923186 36146.921304181906 96 32768 3145728 152567808 3.2162433099366e+14
vector 2008  BasicTopology.peer[47].bitTorrentApp.bitTorrentClient.contentManager_51  TotalBytesDownloaded:vector  ETV
attr source ContentManager_TotalBytesDownloaded
attr title "Total of Bytes Downloaded, vector"
attr unit B
2008	451599 4267 8933535 199220950 36015.298970031178 36189.312760877703 104 32768 3407872 178913280 4.0842991501312e+14
vector 1992  BasicTopology.peer[45].bitTorrentApp.bitTorrentClient.contentManager_51  TotalBytesDownloaded:vector  ETV
attr source ContentManager_TotalBytesDownloaded
attr title "Total of Bytes Downloaded, vector"
attr unit B
1992	440868 3946 9161166 227941411 36015.578494395385 36230.746021461843 96 32768 3145728 152567808 3.2162433099366e+14
vector 1721  BasicTopology.peer[11].bitTorrentApp.bitTorrentClient.contentManager_51  TotalBytesUploaded:vector  ETV
attr source ContentManager_TotalBytesUploaded
attr title "Total of Bytes Uploaded, vector"
attr unit B
1721	166954 12142 9183043 221827207 36015.600816920553 36220.683118956848 296 32768 9699328 1440350208 9.3293518667121e+15
vector 1968  BasicTopology.peer[42].bitTorrentApp.bitTorrentClient.contentManager_51  TotalBytesDownloaded:vector  ETV
attr source ContentManager_TotalBytesDownloaded
attr title "Total of Bytes Downloaded, vector"
attr unit B
1968	413319 4154 9600346 207046378 36016.188486157084 36198.918846384972 101 32768 3309568 168787968 3.7425378649702e+14
vector 1649  BasicTopology.peer[2].bitTorrentApp.bitTorrentClient.contentManager_51  TotalBytesUploaded:vector  ETV
attr source ContentManager_TotalBytesUploaded
attr title "Total of Bytes Uploaded, vector"
attr unit B
1649	75748 4765 9747929 142741110 36016.386184963107 36127.615713947481 117 32768 3833856 226197504 5.8060978520064e+14
vector 1975  BasicTopology.peer[43].bitTorrentApp.bitTorrentClient.contentManager_51  PiecesDownloaded:vector  ETV
attr source ContentManager_PieceDownloaded
attr title "Pieces Downloaded, vector"
1975	421536 424 10214020 140250135 36016.8289460901 36125.368275614521 12 0 11 66 506
vector 1823  BasicTopology.peer[24].bitTorrentApp.bitTorrentClient.contentManager_51  PiecesDownloaded:vector  ETV
attr source ContentManager_PieceDownloaded
attr title "Pieces Downloaded, vector"