file 468080 1593887685                                          
version 2
run Test-9-20200525-12:23:18-6639
attr configname Test
attr datetime 20200525-12:23:18
attr experiment "\"Simulation Test\""
attr inifile BasicConfig.ini
attr iterationvars ""
attr iterationvars2 $repetition=9
attr measurement "\"Peers: $peers, Rate: $rate\""
attr network BasicTopology
attr processid 6639
attr repetition 9
attr replication #9
attr resultdir results
attr runnumber 9
attr seedset 9
vector 3  BasicTopology.peer[1].bitTorrentApp.bitTorrentClient  DownloadComplete_Test:vector  ETV
attr source BitTorrentClient_DownloadComplete_Test
attr title "Descargas completas (prueba), vector"
3	41547 65 135 194364774 36001 36180.850757494889 2 36001 36180.850757495 72181.850757495 2605125962.5361
vector 5  BasicTopology.peer[2].bitTorrentApp.bitTorrentClient  DownloadComplete_Test:vector  ETV
attr source BitTorrentClient_DownloadComplete_Test
attr title "Descargas completas (prueba), vector"
5	41612 65 136 154218760 36001 36138.846097413557 2 36001 36138.846097414 72139.846097414 2602088198.2526
vector 7  BasicTopology.peer[3].bitTorrentApp.bitTorrentClient  DownloadComplete_Test:vector  ETV
attr source BitTorrentClient_DownloadComplete_Test
attr title "Descargas completas (prueba), vector"
7	41677 65 137 205890479 36001 36194.758821885767 2 36001 36194.758821886 72195.758821886 2606132567.1745
vector 9  BasicTopology.peer[4].bitTorrentApp.bitTorrentClient  DownloadComplete_Test:vector  ETV
attr source BitTorrentClient_DownloadComplete_Test
attr title "Descargas completas (prueba), vector"
9	41742 65 138 213379377 36001 36204.838887566702 2 36001 36204.838887567 72205.838887567 2606862359.8747
vector 11  BasicTopology.peer[5].bitTorrentApp.bitTorrentClient  DownloadComplete_Test:vector  ETV
attr source BitTorrentClient_DownloadComplete_Test
attr title "Descargas completas (prueba), vector"
11	41807 66 139 224075545 36001 36220.459065290359 2 36001 36220.45906529 72221.45906529 2607993655.9003
vector 13  BasicTopology.peer[6].bitTorrentApp.bitTorrentClient  DownloadComplete_Test:vector  ETV
attr source BitTorrentClient_DownloadComplete_Test
attr title "Descargas completas (prueba), vector"
13	41873 65 140 189886215 36001 36176.13305463007 2 36001 36176.13305463 72177.13305463 2604784603.7863
vector 15  BasicTopology.peer[7].bitTorrentApp.bitTorrentClient  DownloadComplete_Test:vector  ETV
attr source BitTorrentClient_DownloadComplete_Test
attr title "Descargas completas (prueba), vector"
15	41938 67 141 223599672 36001 36219.637335359328 2 36001 36219.637335359 72220.637335359 2607934129.7049
vector 17  BasicTopology.peer[8].bitTorrentApp.bitTorrentClient  DownloadComplete_Test:vector  ETV
attr source BitTorrentClient_DownloadComplete_Test
attr title "Descargas completas (prueba), vector"
17	42005 67 142 222755753 36001 36217.927100544689 2 36001 36217.927100545 72218.927100545 2607810244.4604
vector 19  BasicTopology.peer[9].bitTorrentApp.bitTorrentClient  DownloadComplete_Test:vector  ETV
attr source BitTorrentClient_DownloadComplete_Test
attr title "Descargas completas (prueba), vector"
19	42072 67 143 214434235 36001 36206.248258044524 2 36001 36206.248258045 72207.248258045 2606964413.9232
vector 21  BasicTopology.peer[10].bitTorrentApp.bitTorrentClient  DownloadComplete_Test:vector  ETV
attr source BitTorrentClient_DownloadComplete_Test
attr title "Descargas completas (prueba), vector"
21	42139 66 144 123156484 36001 36111.853604249679 2 36001 36111.85360425 72112.85360425 2600137971.7348
vector 23  BasicTopology.peer[11].bitTorrentApp.bitTorrentClient  DownloadComplete_Test:vector  ETV
attr source BitTorrentClient_DownloadComplete_Test
attr title "Descargas completas (prueba), vector"
23	42205 67 145 183515480 36001 36169.516994455381 2 36001 36169.516994455 72170.516994455 2604305960.6122
vector 25  BasicTopology.peer[12].bitTorrentApp.bitTorrentClient  DownloadComplete_Test:vector  ETV
attr source BitTorrentClient_DownloadComplete_Test
attr title "Descargas completas (prueba), vector"
25	42272 67 146 201151135 36001 36188.637180132652 2 36001 36188.637180133 72189.637180133 2605689461.9553
vector 27  BasicTopology.peer[13].bitTorrentApp.bitTorrentClient  DownloadComplete_Test:vector  ETV
attr source BitTorrentClient_DownloadComplete_Test
attr title "Descargas completas (prueba), vector"
27	42339 65 147 228825350 36001 36228.60624082023 2 36001 36228.60624082 72229.60624082 2608583911.1524
vector 29  BasicTopology.peer[14].bitTorrentApp.bitTorrentClient  DownloadComplete_Test:vector  ETV
attr source BitTorrentClient_DownloadComplete_Test
attr title "Descargas completas (prueba), vector"
29	42404 66 148 211118322 36001 36201.76738277191 2 36001 36201.767382772 72202.767382772 2606639962.6363
vector 31  BasicTopology.peer[15].bitTorrentApp.bitTorrentClient  DownloadComplete_Test:vector  ETV
attr source BitTorrentClient_DownloadComplete_Test
attr title "Descargas completas (prueba), vector"
31	42470 67 149 218179634 36001 36211.232546989443 2 36001 36211.232546989 72212.232546989 2607325363.5721
vector 33  BasicTopology.peer[16].bitTorrentApp.bitTorrentClient  DownloadComplete_Test:vector  ETV
attr source BitTorrentClient_DownloadComplete_Test
attr title "Descargas completas (prueba), vector"
33	42537 67 150 231786948 36001 36244.400090238559 2 36001 36244.400090239 72245.400090239 2609728538.9013
vector 35  BasicTopology.peer[17].bitTorrentApp.bitTorrentClient  DownloadComplete_Test:vector  ETV
attr source BitTorrentClient_DownloadComplete_Test
attr title "Descargas completas (prueba), vector"
35	42604 67 151 189216228 36001 36175.542315172707 2 36001 36175.542315173 72176.542315173 2604741862.7969
vector 37  BasicTopology.peer[18].bitTorrentApp.bitTorrentClient  DownloadComplete_Test:vector  ETV
attr source BitTorrentClient_DownloadComplete_Test
attr title "Descargas completas (prueba), vector"
37	42671 67 152 210182341 36001 36200.494093483044 2 36001 36200.494093483 72201.494093483 2606547773.6123
vector 39  BasicTopology.peer[19].bitTorrentApp.bitTorrentClient  DownloadComplete_Test:vector  ETV
attr source BitTorrentClient_DownloadComplete_Test
attr title "Descargas completas (prueba), vector"
39	42738 67 153 195431229 36001 36182.107660436135 2 36001 36182.107660436 72183.107660436 2605216915.7514
vector 41  BasicTopology.peer[20].bitTorrentApp.bitTorrentClient  DownloadComplete_Test:vector  ETV
attr source BitTorrentClient_DownloadComplete_Test
attr title "Descargas completas (prueba), vector"
41	42805 66 154 225879296 36001 36222.99025789835 2 36001 36222.990257898 72223.990257898 2608177024.2238
vector 43  BasicTopology.peer[21].bitTorrentApp.bitTorrentClient  DownloadComplete_Test:vector  ETV
attr source BitTorrentClient_DownloadComplete_Test
attr title "Descargas completas (prueba), vector"
43	42871 66 155 88804198 36001 36084.044661628599 2 36001 36084.044661629 72085.044661629 2598130280.1424
vector 45  BasicTopology.peer[22].bitTorrentApp.bitTorrentClient  DownloadComplete_Test:vector  ETV
attr source BitTorrentClient_DownloadComplete_Test
attr title "Descargas completas (prueba), vector"
45	42937 66 156 225959394 36001 36223.125255509845 2 36001 36223.12525551 72224.12525551 2608186804.2764
vector 47  BasicTopology.peer[23].bitTorrentApp.bitTorrentClient  DownloadComplete_Test:vector  ETV
attr source BitTorrentClient_DownloadComplete_Test
attr title "Descargas completas (prueba), vector"
47	43003 67 157 215806835 36001 36208.077810918584 2 36001 36208.077810919 72209.077810919 2607096899.7616
vector 49  BasicTopology.peer[24].bitTorrentApp.bitTorrentClient  DownloadComplete_Test:vector  ETV
attr source BitTorrentClient_DownloadComplete_Test
attr title "Descargas completas (prueba), vector"
49	43070 65 158 223640474 36001 36219.7079161143 2 36001 36219.707916114 72220.707916114 2607939242.5286
vector 51  BasicTopology.peer[25].bitTorrentApp.bitTorrentClient  DownloadComplete_Test:vector  ETV
attr source BitTorrentClient_DownloadComplete_Test
attr title "Descargas completas (prueba), vector"
51	43135 67 159 221800203 36001 36216.292839089404 2 36001 36216.292839089 72217.292839089 2607691868.0066
vector 53  BasicTopology.peer[26].bitTorrentApp.bitTorrentClient  DownloadComplete_Test:vector  ETV
attr source BitTorrentClient_DownloadComplete_Test
attr title "Descargas completas (prueba), vector"
53	43202 67 160 230484623 36001 36232.993315674875 2 36001 36232.993315675 72233.993315675 2608901805.6137
vector 55  BasicTopology.peer[27].bitTorrentApp.bitTorrentClient  DownloadComplete_Test:vector  ETV
attr source BitTorrentClient_DownloadComplete_Test
attr title "Descargas completas (prueba), vector"
55	43269 67 161 214563877 36001 36206.417097112566 2 36001 36206.417097113 72207.417097113 2606976640.0101
vector 57  BasicTopology.peer[28].bitTorrentApp.bitTorrentClient  DownloadComplete_Test:vector  ETV
attr source BitTorrentClient_DownloadComplete_Test
attr title "Descargas completas (prueba), vector"
57	43336 67 162 185368225 36001 36171.542459298131 2 36001 36171.542459298 72172.542459298 2604452484.8848
vector 59  BasicTopology.peer[29].bitTorrentApp.bitTorrentClient  DownloadComplete_Test:vector  ETV
attr source BitTorrentClient_DownloadComplete_Test
attr title "Descargas completas (prueba), vector"
59	43403 67 163 226511143 36001 36223.955025097692 2 36001 36223.955025098 72224.955025098 2608246918.6603
vector 61  BasicTopology.peer[30].bitTorrentApp.bitTorrentClient  DownloadComplete_Test:vector  ETV
attr source BitTorrentClient_DownloadComplete_Test
attr title "Descargas completas (prueba), vector"
61	43470 67 164 207630850 36001 36197.073163441056 2 36001 36197.073163441 72198.073163441 2606300106.5995
vector 63  BasicTopology.peer[31].bitTorrentApp.bitTorrentClient  DownloadComplete_Test:vector  ETV
attr source BitTorrentClient_DownloadComplete_Test
attr title "Descargas completas (prueba), vector"
63	43537 67 165 221852095 36001 36216.376373177264 2 36001 36216.376373177 72217.376373177 2607697918.6036
vector 65  BasicTopology.peer[32].bitTorrentApp.bitTorrentClient  DownloadComplete_Test:vector  ETV
attr source BitTorrentClient_DownloadComplete_Test
attr title "Descargas completas (prueba), vector"
65	43604 67 166 202733252 36001 36190.496173229215 2 36001 36190.496173229 72191.496173229 2605824014.2645
vector 67  BasicTopology.peer[33].bitTorrentApp.bitTorrentClient  DownloadComplete_Test:vector  ETV
attr source BitTorrentClient_DownloadComplete_Test
attr title "Descargas completas (prueba), vector"
67	43671 67 167 206978976 36001 36196.213531562714 2 36001 36196.213531563 72197.213531563 2606237875.0225
vector 69  BasicTopology.peer[34].bitTorrentApp.bitTorrentClient  DownloadComplete_Test:vector  ETV
attr source BitTorrentClient_DownloadComplete_Test
attr title "Descargas completas (prueba), vector"
69	43738 66 168 216475072 36001 36208.95853454604 2 36001 36208.958534546 72209.958534546 2607160679.1565
vector 71  BasicTopology.peer[35].bitTorrentApp.bitTorrentClient  DownloadComplete_Test:vector  ETV
attr source BitTorrentClient_DownloadComplete_Test
attr title "Descargas completas (prueba), vector"
71	43804 67 169 227213088 36001 36225.392761848924 2 36001 36225.392761849 72226.392761849 2608351081.7502
vector 73  BasicTopology.peer[36].bitTorrentApp.bitTorrentClient  DownloadComplete_Test:vector  ETV
attr source BitTorrentClient_DownloadComplete_Test
attr title "Descargas completas (prueba), vector"
73	43871 66 170 223577747 36001 36219.535076550224 2 36001 36219.53507655 72220.53507655 2607926722.1614
vector 75  BasicTopology.peer[37].bitTorrentApp.bitTorrentClient  DownloadComplete_Test:vector  ETV
attr source BitTorrentClient_DownloadComplete_Test
attr title "Descargas completas (prueba), vector"
75	43937 67 171 218266866 36001 36211.359570932066 2 36001 36211.359570932 72212.359570932 2607334562.9753
vector 77  BasicTopology.peer[38].bitTorrentApp.bitTorrentClient  DownloadComplete_Test:vector  ETV
attr source BitTorrentClient_DownloadComplete_Test
attr title "Descargas completas (prueba), vector"
77	44004 67 172 228925960 36001 36228.741849901004 2 36001 36228.741849901 72229.741849901 2608593737.0268
vector 79  BasicTopology.peer[39].bitTorrentApp.bitTorrentClient  DownloadComplete_Test:vector  ETV
attr source BitTorrentClient_DownloadComplete_Test
attr title "Descargas completas (prueba), vector"
79	44071 67 173 214838623 36001 36206.735940374631 2 36001 36206.735940375 72207.735940375 2606999728.456
vector 81  BasicTopology.peer[40].bitTorrentApp.bitTorrentClient  DownloadComplete_Test:vector  ETV
attr source BitTorrentClient_DownloadComplete_Test
attr title "Descargas completas (prueba), vector"
81	44138 66 174 191773933 36001 36178.22270890709 2 36001 36178.222708907 72179.222708907 2604935799.3753
vector 83  BasicTopology.peer[41].bitTorrentApp.bitTorrentClient  DownloadComplete_Test:vector  ETV
attr source BitTorrentClient_DownloadComplete_Test
attr title "Descargas completas (prueba), vector"
83	44204 67 175 227288656 36001 36225.864891251082 2 36001 36225.864891251 72226.864891251 2608385288.1192
vector 85  BasicTopology.peer[42].bitTorrentApp.bitTorrentClient  DownloadComplete_Test:vector  ETV
attr source BitTorrentClient_DownloadComplete_Test
attr title "Descargas completas (prueba), vector"
85	44271 67 176 140685304 36001 36126.637229795418 2 36001 36126.637229795 72127.637229795 2601205918.5332
vector 87  BasicTopology.peer[43].bitTorrentApp.bitTorrentClient  DownloadComplete_Test:vector  ETV
attr source BitTorrentClient_DownloadComplete_Test
attr title "Descargas completas (prueba), vector"
87	44338 67 177 188505638 36001 36174.779668263684 2 36001 36174.779668264 72175.779668264 2604686685.0474
vector 89  BasicTopology.peer[44].bitTorrentApp.bitTorrentClient  DownloadComplete_Test:vector  ETV
attr source BitTorrentClient_DownloadComplete_Test
attr title "Descargas completas (prueba), vector"
89	44405 67 178 225593127 36001 36222.589306986476 2 36001 36222.589306986 72223.589306986 2608147977.1026
vector 91  BasicTopology.peer[45].bitTorrentApp.bitTorrentClient  DownloadComplete_Test:vector  ETV
attr source BitTorrentClient_DownloadComplete_Test
attr title "Descargas completas (prueba), vector"
91	44472 67 179 207997167 36001 36197.452832982597 2 36001 36197.452832983 72198.452832983 2606327592.596
vector 93  BasicTopology.peer[46].bitTorrentApp.bitTorrentClient  DownloadComplete_Test:vector  ETV
attr source BitTorrentClient_DownloadComplete_Test
attr title "Descargas completas (prueba), vector"
93	44539 65 180 197981355 36001 36184.9830556166 2 36001 36184.983055617 72185.983055617 2605424999.7353
vector 95  BasicTopology.peer[47].bitTorrentApp.bitTorrentClient  DownloadComplete_Test:vector  ETV
attr source BitTorrentClient_DownloadComplete_Test
attr title "Descargas completas (prueba), vector"
95	44604 66 181 225223007 36001 36221.79441265949 2 36001 36221.794412659 72222.794412659 2608090391.4729
vector 97  BasicTopology.peer[48].bitTorrentApp.bitTorrentClient  DownloadComplete_Test:vector  ETV
attr source BitTorrentClient_DownloadComplete_Test
attr title "Descargas completas (prueba), vector"
97	44670 66 182 194110412 36001 36180.608474870345 2 36001 36180.60847487 72181.60847487 2605108430.6118
vector 99  BasicTopology.peer[49].bitTorrentApp.bitTorrentClient  DownloadComplete_Test:vector  ETV
attr source BitTorrentClient_DownloadComplete_Test
attr title "Descargas completas (prueba), vector"
99	44736 67 183 211946971 36001 36202.883167692739 2 36001 36202.883167693 72203.883167693 2606720750.6536
vector 1633  BasicTopology.peer[0].bitTorrentApp.bitTorrentClient.contentManager_51  TotalBytesUploaded:vector  ETV
attr source ContentManager_TotalBytesUploaded
attr title "Total of Bytes Uploaded, vector"
attr unit B
1633	44803 13340 1995209 218010280 36004.143482042095 36210.958433098905 327 32768 10715136 1757282304 1.2572206794015e+16
vector 1712  BasicTopology.peer[10].bitTorrentApp.bitTorrentClient.contentManager_51  TotalBytesDownloaded:vector  ETV
attr source ContentManager_TotalBytesDownloaded
attr title "Total of Bytes Downloaded, vector"
attr unit B
1712	152327 3877 2967660 123156484 36005.997969984527 36111.853604249679 96 32768 3145728 152567808 3.2162433099366e+14
vector 1736  BasicTopology.peer[13].bitTorrentApp.bitTorrentClient.contentManager_51  TotalBytesDownloaded:vector  ETV
attr source ContentManager_TotalBytesDownloaded
attr title "Total of Bytes Downloaded, vector"
attr unit B
1736	183637 3911 3072477 228825350 36006.56778348622 36228.60624082023 96 32768 3145728 152567808 3.2162433099366e+14
vector 1800  BasicTopology.peer[21].bitTorrentApp.bitTorrentClient.contentManager_51  TotalBytesDownloaded:vector  ETV
attr source ContentManager_TotalBytesDownloaded
attr title "Total of Bytes Downloaded, vector"
attr unit B
1800	251707 3848 3118658 88804198 36006.700216085683 36084.044661628599 96 32768 3145728 152567808 3.2162433099366e+14
vector 1799  BasicTopology.peer[21].bitTorrentApp.bitTorrentClient.contentManager_51  PiecesDownloaded:vector  ETV
attr source ContentManager_PieceDownloaded
attr title "Pieces Downloaded, vector"
1799	251291 416 3759996 88804198 36008.179103788314 36084.044661628599 12 0 11 66 506
vector 1801  BasicTopology.peer[21].bitTorrentApp.bitTorrentClient.contentManager_51  TotalBytesUploaded:vector  ETV
attr source ContentManager_TotalBytesUploaded
attr title "Total of Bytes Uploaded, vector"
attr unit B
1801	255555 10498 3784493 208923561 36008.220695602384 36198.755714229897 259 32768 8486912 1103298560 6.2544494880358e+15
vector 1728  BasicTopology.peer[12].bitTorrentApp.bitTorrentClient.contentManager_51  TotalBytesDownloaded:vector  ETV
attr source ContentManager_TotalBytesDownloaded
attr title "Total of Bytes Downloaded, vector"
attr unit B
1728	176406 3922 3815039 201151135 36008.288747059749 36188.637180132652 96 32768 3145728 152567808 3.2162433099366e+14
vector 1735  BasicTopology.peer[13].bitTorrentApp.bitTorrentClient.contentManager_51  PiecesDownloaded:vector  ETV
attr source ContentManager_PieceDownloaded
attr title "Pieces Downloaded, vector"
1735	183213 424 4134077 228825350 36009.232857389538 36228.60624082023 12 0 11 66 506
vector 1737  BasicTopology.peer[13].bitTorrentApp.bitTorrentClient.contentManager_51  TotalBytesUploaded:vector  ETV
attr source ContentManager_TotalBytesUploaded
attr title "Total of Bytes Uploaded, vector"
attr unit B
1737	187548 10426 4151791 198252174 36009.27573807154 36185.296621062577 257 32768 8421376 1086357504 6.1109492619674e+15
vector 1656  BasicTopology.peer[3].bitTorrentApp.bitTorrentClient.contentManager_51  TotalBytesDownloaded:vector  ETV
attr source ContentManager_TotalBytesDownloaded
attr title "Total of Bytes Downloaded, vector"
attr unit B
1656	82516 3918 4757594 205890479 36010.361628601716 36194.758821885767 96 32768 3145728 152567808 3.2162433099366e+14
vector 1664  BasicTopology.peer[4].bitTorrentApp.bitTorrentClient.contentManager_51  TotalBytesDownloaded:vector  ETV
attr source ContentManager_TotalBytesDownloaded
attr title "Total of Bytes Downloaded, vector"
attr unit B
1664	96284 3937 4809801 213379377 36010.495628791366 36204.838887566702 96 32768 3145728 152567808 3.2162433099366e+14
vector 1648  BasicTopology.peer[2].bitTorrentApp.bitTorrentClient.contentManager_51  TotalBytesDownloaded:vector  ETV
attr source ContentManager_TotalBytesDownloaded
attr title "Total of Bytes Downloaded, vector"
attr unit B
1648	68933 3893 4828619 154218760 36010.546582106206 36138.846097413557 96 32768 3145728 152567808 3.2162433099366e+14
vector 1896  BasicTopology.peer[33].bitTorrentApp.bitTorrentClient.contentManager_51  TotalBytesDownloaded:vector  ETV
attr source ContentManager_TotalBytesDownloaded
attr title "Total of Bytes Downloaded, vector"
attr unit B
1896	341189 3997 5160985 206978976 36011.495212068751 36196.213531562714 97 32768 3178496 155746304 3.3172716781568e+14
vector 1832  BasicTopology.peer[25].bitTorrentApp.bitTorrentClient.contentManager_51  TotalBytesDownloaded:vector  ETV
attr source ContentManager_TotalBytesDownloaded
attr title "Total of Bytes Downloaded, vector"
attr unit B
1832	285680 4070 5307010 221800203 36011.714522327024 36216.292839089404 99 32768 3244032 162201600 3.525631279104e+14
vector 1647  BasicTopology.peer[2].bitTorrentApp.bitTorrentClient.contentManager_51  PiecesDownloaded:vector  ETV
attr source ContentManager_PieceDownloaded
attr title "Pieces Downloaded, vector"
1647	68512 421 5853335 154218760 36012.976771458365 36138.846097413557 12 0 11 66 506
vector 1649  BasicTopology.peer[2].bitTorrentApp.bitTorrentClient.contentManager_51  TotalBytesUploaded:vector  ETV
attr source ContentManager_TotalBytesUploaded
attr title "Total of Bytes Uploaded, vector"
attr unit B
1649	72826 9264 5934445 209433699 36013.055994983035 36199.599491743354 227 32768 7438336 847970304 4.2142541230899e+15
vector 1936  BasicTopology.peer[38].bitTorrentApp.bitTorrentClient.contentManager_51  TotalBytesDownloaded:vector  ETV
attr source ContentManager_TotalBytesDownloaded
attr title "Total of Bytes Downloaded, vector"
attr unit B
1936	369854 4189 6092218 228925960 36013.229045149868 36228.741849901004 102 32768 3342336 172130304 3.8542499643392e+14
vector 1727  BasicTopology.peer[12].bitTorrentApp.bitTorrentClient.contentManager_51  PiecesDownloaded:vector  ETV
attr source ContentManager_PieceDownloaded
attr title "Pieces Downloaded, vector"
1727	175977 429 6877240 201151135 36014.864519738163 36188.637180132652 12 0 11 66 506
vector 1729  BasicTopology.peer[12].bitTorrentApp.bitTorrentClient.contentManager_51  TotalBytesUploaded:vector  ETV
attr source ContentManager_TotalBytesUploaded
attr title "Total of Bytes Uploaded, vector"
attr unit B
1729	180328 2885 6913529 112346371 36014.914368736381 36103.047516398333 72 32768 2359296 86114304 1.3638668648448e+14
vector 1831  BasicTopology.peer[25].bitTorrentApp.bitTorrentClient.contentManager_51  PiecesDownloaded:vector  ETV
attr source ContentManager_PieceDownloaded
attr title "Pieces Downloaded, vector"
1831	285251 429 7117467 221800203 36015.199338683045 36216.292839089404 12 0 11 66 506
vector 1752  BasicTopology.peer[15].bitTorrentApp.bitTorrentClient.contentManager_51  TotalBytesDownloaded:vector  ETV
attr source ContentManager_TotalBytesDownloaded
attr title "Total of Bytes Downloaded, vector"
attr unit B
1752	208918 3940 7130757 218179634 36015.215040036548 36211.232546989443 96 32768 3145728 152567808 3.2162433099366e+14
vector 1833  BasicTopology.peer[25].bitTorrentApp.bitTorrentClient.contentManager_51  TotalBytesUploaded:vector  ETV
attr source ContentManager_TotalBytesUploaded
attr title "Total of Bytes Uploaded, vector"
attr unit B
1833	289750 4978 7155978 222569933 36015.246025410552 36217.707282109209 122 32768 3997696 245858304 6.5792993394688e+14
vector 1880  BasicTopology.peer[31].bitTorrentApp.bitTorrentClient.contentManager_51  TotalBytesDownloaded:vector  ETV
attr source ContentManager_TotalBytesDownloaded
attr title "Total of Bytes Downloaded, vector"
attr unit B
1880	324744 4384 7216080 225184876 36015.335499443521 36221.737974262968 107 32768 3506176 189333504 4.4462575190016e+14
vector 1824  BasicTopology.peer[24].bitTorrentApp.bitTorrentClient.contentManager_51  TotalBytesDownloaded:vector  ETV
attr source ContentManager_TotalBytesDownloaded
attr title "Total of Bytes Downloaded, vector"
attr unit B
1824	277695 3933 7353562 223640474 36015.605850570111 36219.7079161143 96 32768 3145728 152567808 3.2162433099366e+14
vector 1864  BasicTopology.peer[29].bitTorrentApp.bitTorrentClient.contentManager_51  TotalBytesDownloaded:vector  ETV
attr source ContentManager_TotalBytesDownloaded
attr title "Total of Bytes Downloaded, vector"
attr unit B
1864	309606 3940 7388541 226511143 36015.643975008526 36223.955025097692 96 32768 3145728 152567808 3.2162433099366e+14
vector 1935  BasicTopology.peer[38].bitTorrentApp.bitTorrentClient.contentManager_51  PiecesDownloaded:vector  ETV
attr source ContentManager_PieceDownloaded
attr title "Pieces Downloaded, vector"
1935	369427 427 7744734 228925960 36016.151801061298 36228.741849901004 12 0 11 66 506
vector 1937  BasicTopology.peer[38].bitTorrentApp.bitTorrentClient.contentManager_51  TotalBytesUploaded:vector  ETV
attr source ContentManager_TotalBytesUploaded
attr title "Total of Bytes Uploaded, vector"
attr unit B
1937	374043 2453 7774684 169720567 36016.187697968351 36154.892862952344 61 32768 1998848 61964288 83248277356544
vector 1968  BasicTopology.peer[42].bitTorrentApp.bitTorrentClient.contentManager_51  TotalBytesDownloaded:vector  ETV
attr source ContentManager_TotalBytesDownloaded
attr title "Total of Bytes Downloaded, vector"
attr unit B
1968	403749 3910 7880708 140685304 36016.320557940748 36126.637229795418 96 32768 3145728 152567808 3.2162433099366e+14
vector 1816  BasicTopology.peer[23].bitTorrentApp.bitTorrentClient.contentManager_51  TotalBytesDownloaded:vector  ETV
attr source ContentManager_TotalBytesDownloaded
attr title "Total of Bytes Downloaded, vector"
attr unit B
1816	272812 3935 8287745 215806835 36016.718029052302 36208.077810918584 96 32768 3145728 152567808 3.2162433099366e+14
vector 1688  BasicTopology.peer[7].bitTorrentApp.bitTorrentClient.contentManager_51  TotalBytesDownloaded:vector  ETV
attr source ContentManager_TotalBytesDownloaded
attr title "Total of Bytes Downloaded, vector"
attr unit B
1688	126275 3928 8294308 223599672 36016.729602461404 36219.637335359328 96 32768 3145728 152567808 3.2162433099366e+14
vector 1672  BasicTopology.peer[5].bitTorrentApp.bitTorrentClient.contentManager_51  TotalBytesDownloaded:vector  ETV
attr source ContentManager_TotalBytesDownloaded
attr title "Total of Bytes Downloaded, vector"
attr unit B
1672	107563 4261 8543203 224075545 36017.100773767694 36220.459065290359 104 32768 3407872 178913280 4.0842991501312e+14
vector 2000  BasicTopology.peer[46].bitTorrentApp.bitTorrentClient.contentManager_51  TotalBytesDownloaded:vector  ETV
attr source ContentManager_TotalBytesDownloaded
attr title "Total of Bytes Downloaded, vector"
attr unit B
2000	443662 4145 8597655 209881301 36017.23693175143 36200.123970969415 101 32768 3309568 168787968 3.7425378649702e+14
vector 1776  BasicTopology.peer[18].bitTorrentApp.bitTorrentClient.contentManager_51  TotalBytesDownloaded:vector  ETV
attr source ContentManager_TotalBytesDownloaded
attr title "Total of Bytes Downloaded, vector"
attr unit B
1776	227111 4274 8728705 210182341 36017.447196575678 36200.494093483044 104 32768 3407872 178913280 4.0842991501312e+14
vector 1711  BasicTopology.peer[10].bitTorrentApp.bitTorrentClient.contentManager_51  PiecesDownloaded:vector  ETV
attr source ContentManager_PieceDownloaded
attr title "Pieces Downloaded, vector"
1711	151908 419 8863721 123156484 36017.570343253151 36111.853604249679 12 0 11 66 506
vector 1713  BasicTopology.peer[10].bitTorrentApp.bitTorrentClient.contentManager_51  TotalBytesUploaded:vector  ETV
attr source ContentManager_TotalBytesUploaded
attr title "Total of Bytes Uploaded, vector"
attr unit B
1713	156204 12096 8942982 229315541 36017.653531488795 36229.36471948646 295 32768 9666560 1430650880 9.2352749030605e+15
vector 1704  BasicTopology.peer[9].bitTorrentApp.bitTorrentClient.contentManager_51  TotalBytesDownloaded:vector  ETV
attr source ContentManager_TotalBytesDownloaded
attr title "Total of Bytes Downloaded, vector"
attr unit B
1704	145477 3948 9050326 214434235 36017.806314400757 36206.248258044524 96 32768 3145728 152567808 3.2162433099366e+14
vector 1687  BasicTopology.peer[7].bitTorrentApp.bitTorrentClient.contentManager_51  PiecesDownloaded:vector  ETV
attr source ContentManager_PieceDownloaded
attr title "Pieces Downloaded, vector"
1687	125849 426 9313543 223599672 36018.187842711795 36219.637335359328 12 0 11 66 506
vector 1689  BasicTopology.peer[7].bitTorrentApp.bitTorrentClient.contentManager_51  TotalBytesUploaded:vector  ETV
attr source ContentManager_TotalBytesUploaded
attr title "Total of Bytes Uploaded, vector"
attr unit B
1689	130203 5770 9332061 87055902 36018.210895941347 36082.600498335807 142 32768 4653056 332693504 1.0356615702118e+15
vector 1952  BasicTopology.peer[40].bitTorrentApp.bitTorrentClient.contentManager_51  TotalBytesDownloaded:vector  ETV
attr source ContentManager_TotalBytesDownloaded
attr title "Total of Bytes Downloaded, vector"
attr unit B
1952	383675 3959 9366083 203707810 36018.267562086825 36191.78355145662 97 32768 3178496 155746304 3.3172716781568e+14
vector 1856  BasicTopology.peer[28].bitTorrentApp.bitTorrentClient.contentManager_51  TotalBytesDownloaded:vector  ETV
attr source ContentManager_TotalBytesDownloaded
attr title "Total of Bytes Downloaded, vector"
attr unit B
1856	305002 3933 9791715 185368225 36018.852429751656 36171.542459298131 96 32768 3145728 152567808 3.2162433099366e+14
vector 1663  BasicTopology.peer[4].bitTorrentApp.bitTorrentClient.contentManager_51  PiecesDownloaded:vector  ETV
attr source ContentManager_PieceDownloaded
attr title "Pieces Downloaded, vector"
1663	95856 428 9944039 213379377 36019.005845194901 36204.838887566702 12 0 11 66 506
vector 1665  BasicTopology.peer[4].bitTorrentApp.bitTorrentClient.contentManager_51  TotalBytesUploaded:vector  ETV
attr source ContentManager_TotalBytesUploaded
attr title "Total of Bytes Uploaded, vector"
attr unit B
1665	100221 6915 10025447 187471652 36019.073596362167 36173.669735749832 168 32768 5505024 465174528 1.7122789068636e+15
vector 1640  BasicTopology.peer[1].bitTorrentApp.bitTorrentClient.contentManager_51  TotalBytesDownloaded:vector  ETV
attr source ContentManager_TotalBytesDownloaded
attr title "Total of Bytes Downloaded, vector"
attr unit B
1640	58569 3933 10189951 194364774 36019.243584943582 36180.850757494889 96 32768 3145728 152567808 3.2162433099366e+14
vector 1696  BasicTopology.peer[8].bitTorrentApp.bitTorrentClient.contentManager_51  TotalBytesDownloaded:vector  ETV
attr source ContentManager_TotalBytesDownloaded
attr title "Total of Bytes Downloaded, vector"
attr unit B