version 2
run Test-6-20200425-12:21:01-9310
attr configname Test
attr datetime 20200425-12:21:01
attr experiment "\"Simulation Test\""
attr inifile BasicConfig.ini
attr iterationvars ""
attr iterationvars2 $repetition=6
attr measurement "\"Peers: $peers, Rate: $rate\""
attr network BasicTopology
attr processid 9310
attr repetition 6
attr replication #6
attr resultdir results
attr runnumber 6
attr seedset 6

vector 3  BasicTopology.peer[1].bitTorrentApp.bitTorrentClient  DownloadComplete_Test:vector  ETV
attr source  BitTorrentClient_DownloadComplete_Test
attr title  "Descargas completas (prueba), vector"
vector 5  BasicTopology.peer[2].bitTorrentApp.bitTorrentClient  DownloadComplete_Test:vector  ETV
attr source  BitTorrentClient_DownloadComplete_Test
attr title  "Descargas completas (prueba), vector"
vector 7  BasicTopology.peer[3].bitTorrentApp.bitTorrentClient  DownloadComplete_Test:vector  ETV
attr source  BitTorrentClient_DownloadComplete_Test
attr title  "Descargas completas (prueba), vector"
vector 9  BasicTopology.peer[4].bitTorrentApp.bitTorrentClient  DownloadComplete_Test:vector  ETV
attr source  BitTorrentClient_DownloadComplete_Test
attr title  "Descargas completas (prueba), vector"
vector 11  BasicTopology.peer[5].bitTorrentApp.bitTorrentClient  DownloadComplete_Test:vector  ETV
attr source  BitTorrentClient_DownloadComplete_Test
attr title  "Descargas completas (prueba), vector"
vector 13  BasicTopology.peer[6].bitTorrentApp.bitTorrentClient  DownloadComplete_Test:vector  ETV
attr source  BitTorrentClient_DownloadComplete_Test
attr title  "Descargas completas (prueba), vector"
vector 15  BasicTopology.peer[7].bitTorrentApp.bitTorrentClient  DownloadComplete_Test:vector  ETV
attr source  BitTorrentClient_DownloadComplete_Test
attr title  "Descargas completas (prueba), vector"
vector 17  BasicTopology.peer[8].bitTorrentApp.bitTorrentClient  DownloadComplete_Test:vector  ETV
attr source  BitTorrentClient_DownloadComplete_Test
attr title  "Descargas completas (prueba), vector"
vector 19  BasicTopology.peer[9].bitTorrentApp.bitTorrentClient  DownloadComplete_Test:vector  ETV
attr source  BitTorrentClient_DownloadComplete_Test
attr title  "Descargas completas (prueba), vector"
vector 21  BasicTopology.peer[10].bitTorrentApp.bitTorrentClient  DownloadComplete_Test:vector  ETV
attr source  BitTorrentClient_DownloadComplete_Test
attr title  "Descargas completas (prueba), vector"
vector 23  BasicTopology.peer[11].bitTorrentApp.bitTorrentClient  DownloadComplete_Test:vector  ETV
attr source  BitTorrentClient_DownloadComplete_Test
attr title  "Descargas completas (prueba), vector"
vector 25  BasicTopology.peer[12].bitTorrentApp.bitTorrentClient  DownloadComplete_Test:vector  ETV
attr source  BitTorrentClient_DownloadComplete_Test
attr title  "Descargas completas (prueba), vector"
vector 27  BasicTopology.peer[13].bitTorrentApp.bitTorrentClient  DownloadComplete_Test:vector  ETV
attr source  BitTorrentClient_DownloadComplete_Test
attr title  "Descargas completas (prueba), vector"
vector 29  BasicTopology.peer[14].bitTorrentApp.bitTorrentClient  DownloadComplete_Test:vector  ETV
attr source  BitTorrentClient_DownloadComplete_Test
attr title  "Descargas completas (prueba), vector"
vector 31  BasicTopology.peer[15].bitTorrentApp.bitTorrentClient  DownloadComplete_Test:vector  ETV
attr source  BitTorrentClient_DownloadComplete_Test
attr title  "Descargas completas (prueba), vector"
vector 33  BasicTopology.peer[16].bitTorrentApp.bitTorrentClient  DownloadComplete_Test:vector  ETV
attr source  BitTorrentClient_DownloadComplete_Test
attr title  "Descargas completas (prueba), vector"
vector 35  BasicTopology.peer[17].bitTorrentApp.bitTorrentClient  DownloadComplete_Test:vector  ETV
attr source  BitTorrentClient_DownloadComplete_Test
attr title  "Descargas completas (prueba), vector"
vector 37  BasicTopology.peer[18].bitTorrentApp.bitTorrentClient  DownloadComplete_Test:vector  ETV
attr source  BitTorrentClient_DownloadComplete_Test
attr title  "Descargas completas (prueba), vector"
vector 39  BasicTopology.peer[19].bitTorrentApp.bitTorrentClient  DownloadComplete_Test:vector  ETV
attr source  BitTorrentClient_DownloadComplete_Test
attr title  "Descargas completas (prueba), vector"
vector 41  BasicTopology.peer[20].bitTorrentApp.bitTorrentClient  DownloadComplete_Test:vector  ETV
attr source  BitTorrentClient_DownloadComplete_Test
attr title  "Descargas completas (prueba), vector"
vector 43  BasicTopology.peer[21].bitTorrentApp.bitTorrentClient  DownloadComplete_Test:vector  ETV
attr source  BitTorrentClient_DownloadComplete_Test
attr title  "Descargas completas (prueba), vector"
vector 45  BasicTopology.peer[22].bitTorrentApp.bitTorrentClient  DownloadComplete_Test:vector  ETV
attr source  BitTorrentClient_DownloadComplete_Test
attr title  "Descargas completas (prueba), vector"
vector 47  BasicTopology.peer[23].bitTorrentApp.bitTorrentClient  DownloadComplete_Test:vector  ETV
attr source  BitTorrentClient_DownloadComplete_Test
attr title  "Descargas completas (prueba), vector"
vector 49  BasicTopology.peer[24].bitTorrentApp.bitTorrentClient  DownloadComplete_Test:vector  ETV
attr source  BitTorrentClient_DownloadComplete_Test
attr title  "Descargas completas (prueba), vector"
vector 833  BasicTopology.peer[0].bitTorrentApp.bitTorrentClient.contentManager_26  TotalBytesUploaded:vector  ETV
attr source  ContentManager_TotalBytesUploaded
attr title  "Total of Bytes Uploaded, vector"
attr unit  B
vector 1000  BasicTopology.peer[21].bitTorrentApp.bitTorrentClient.contentManager_26  TotalBytesDownloaded:vector  ETV
attr source  ContentManager_TotalBytesDownloaded
attr title  "Total of Bytes Downloaded, vector"
attr unit  B
vector 920  BasicTopology.peer[11].bitTorrentApp.bitTorrentClient.contentManager_26  TotalBytesDownloaded:vector  ETV
attr source  ContentManager_TotalBytesDownloaded
attr title  "Total of Bytes Downloaded, vector"
attr unit  B
vector 999  BasicTopology.peer[21].bitTorrentApp.bitTorrentClient.contentManager_26  PiecesDownloaded:vector  ETV
attr source  ContentManager_PieceDownloaded
attr title  "Pieces Downloaded, vector"
vector 1001  BasicTopology.peer[21].bitTorrentApp.bitTorrentClient.contentManager_26  TotalBytesUploaded:vector  ETV
attr source  ContentManager_TotalBytesUploaded
attr title  "Total of Bytes Uploaded, vector"
attr unit  B
vector 848  BasicTopology.peer[2].bitTorrentApp.bitTorrentClient.contentManager_26  TotalBytesDownloaded:vector  ETV
attr source  ContentManager_TotalBytesDownloaded
attr title  "Total of Bytes Downloaded, vector"
attr unit  B
vector 912  BasicTopology.peer[10].bitTorrentApp.bitTorrentClient.contentManager_26  TotalBytesDownloaded:vector  ETV
attr source  ContentManager_TotalBytesDownloaded
attr title  "Total of Bytes Downloaded, vector"
attr unit  B
vector 840  BasicTopology.peer[1].bitTorrentApp.bitTorrentClient.contentManager_26  TotalBytesDownloaded:vector  ETV
attr source  ContentManager_TotalBytesDownloaded
attr title  "Total of Bytes Downloaded, vector"
attr unit  B
vector 936  BasicTopology.peer[13].bitTorrentApp.bitTorrentClient.contentManager_26  TotalBytesDownloaded:vector  ETV
attr source  ContentManager_TotalBytesDownloaded
attr title  "Total of Bytes Downloaded, vector"
attr unit  B
vector 992  BasicTopology.peer[20].bitTorrentApp.bitTorrentClient.contentManager_26  TotalBytesDownloaded:vector  ETV
attr source  ContentManager_TotalBytesDownloaded
attr title  "Total of Bytes Downloaded, vector"
attr unit  B
vector 935  BasicTopology.peer[13].bitTorrentApp.bitTorrentClient.contentManager_26  PiecesDownloaded:vector  ETV
attr source  ContentManager_PieceDownloaded
attr title  "Pieces Downloaded, vector"
vector 937  BasicTopology.peer[13].bitTorrentApp.bitTorrentClient.contentManager_26  TotalBytesUploaded:vector  ETV
attr source  ContentManager_TotalBytesUploaded
attr title  "Total of Bytes Uploaded, vector"
attr unit  B
vector 911  BasicTopology.peer[10].bitTorrentApp.bitTorrentClient.contentManager_26  PiecesDownloaded:vector  ETV
attr source  ContentManager_PieceDownloaded
attr title  "Pieces Downloaded, vector"
vector 913  BasicTopology.peer[10].bitTorrentApp.bitTorrentClient.contentManager_26  TotalBytesUploaded:vector  ETV
attr source  ContentManager_TotalBytesUploaded
attr title  "Total of Bytes Uploaded, vector"
attr unit  B
vector 839  BasicTopology.peer[1].bitTorrentApp.bitTorrentClient.contentManager_26  PiecesDownloaded:vector  ETV
attr source  ContentManager_PieceDownloaded
attr title  "Pieces Downloaded, vector"
vector 841  BasicTopology.peer[1].bitTorrentApp.bitTorrentClient.contentManager_26  TotalBytesUploaded:vector  ETV
attr source  ContentManager_TotalBytesUploaded
attr title  "Total of Bytes Uploaded, vector"
attr unit  B
vector 1016  BasicTopology.peer[23].bitTorrentApp.bitTorrentClient.contentManager_26  TotalBytesDownloaded:vector  ETV
attr source  ContentManager_TotalBytesDownloaded
attr title  "Total of Bytes Downloaded, vector"
attr unit  B
vector 991  BasicTopology.peer[20].bitTorrentApp.bitTorrentClient.contentManager_26  PiecesDownloaded:vector  ETV
attr source  ContentManager_PieceDownloaded
attr title  "Pieces Downloaded, vector"
vector 993  BasicTopology.peer[20].bitTorrentApp.bitTorrentClient.contentManager_26  TotalBytesUploaded:vector  ETV
attr source  ContentManager_TotalBytesUploaded
attr title  "Total of Bytes Uploaded, vector"
attr unit  B
vector 976  BasicTopology.peer[18].bitTorrentApp.bitTorrentClient.contentManager_26  TotalBytesDownloaded:vector  ETV
attr source  ContentManager_TotalBytesDownloaded
attr title  "Total of Bytes Downloaded, vector"
attr unit  B
vector 856  BasicTopology.peer[3].bitTorrentApp.bitTorrentClient.contentManager_26  TotalBytesDownloaded:vector  ETV
attr source  ContentManager_TotalBytesDownloaded
attr title  "Total of Bytes Downloaded, vector"
attr unit  B
vector 1008  BasicTopology.peer[22].bitTorrentApp.bitTorrentClient.contentManager_26  TotalBytesDownloaded:vector  ETV
attr source  ContentManager_TotalBytesDownloaded
attr title  "Total of Bytes Downloaded, vector"
attr unit  B
vector 1024  BasicTopology.peer[24].bitTorrentApp.bitTorrentClient.contentManager_26  TotalBytesDownloaded:vector  ETV
attr source  ContentManager_TotalBytesDownloaded
attr title  "Total of Bytes Downloaded, vector"
attr unit  B
vector 1007  BasicTopology.peer[22].bitTorrentApp.bitTorrentClient.contentManager_26  PiecesDownloaded:vector  ETV
attr source  ContentManager_PieceDownloaded
attr title  "Pieces Downloaded, vector"
vector 1009  BasicTopology.peer[22].bitTorrentApp.bitTorrentClient.contentManager_26  TotalBytesUploaded:vector  ETV
attr source  ContentManager_TotalBytesUploaded
attr title  "Total of Bytes Uploaded, vector"
attr unit  B
vector 984  BasicTopology.peer[19].bitTorrentApp.bitTorrentClient.contentManager_26  TotalBytesDownloaded:vector  ETV
attr source  ContentManager_TotalBytesDownloaded
attr title  "Total of Bytes Downloaded, vector"
attr unit  B
vector 960  BasicTopology.peer[16].bitTorrentApp.bitTorrentClient.contentManager_26  TotalBytesDownloaded:vector  ETV
attr source  ContentManager_TotalBytesDownloaded
attr title  "Total of Bytes Downloaded, vector"
attr unit  B
vector 855  BasicTopology.peer[3].bitTorrentApp.bitTorrentClient.contentManager_26  PiecesDownloaded:vector  ETV
attr source  ContentManager_PieceDownloaded
attr title  "Pieces Downloaded, vector"
vector 857  BasicTopology.peer[3].bitTorrentApp.bitTorrentClient.contentManager_26  TotalBytesUploaded:vector  ETV
attr source  ContentManager_TotalBytesUploaded
attr title  "Total of Bytes Uploaded, vector"
attr unit  B
vector 864  BasicTopology.peer[4].bitTorrentApp.bitTorrentClient.contentManager_26  TotalBytesDownloaded:vector  ETV
attr source  ContentManager_TotalBytesDownloaded
attr title  "Total of Bytes Downloaded, vector"
attr unit  B
vector 928  BasicTopology.peer[12].bitTorrentApp.bitTorrentClient.contentManager_26  TotalBytesDownloaded:vector  ETV
attr source  ContentManager_TotalBytesDownloaded
attr title  "Total of Bytes Downloaded, vector"
attr unit  B
vector 975  BasicTopology.peer[18].bitTorrentApp.bitTorrentClient.contentManager_26  PiecesDownloaded:vector  ETV
attr source  ContentManager_PieceDownloaded
attr title  "Pieces Downloaded, vector"
vector 977  BasicTopology.peer[18].bitTorrentApp.bitTorrentClient.contentManager_26  TotalBytesUploaded:vector  ETV
attr source  ContentManager_TotalBytesUploaded
attr title  "Total of Bytes Uploaded, vector"
attr unit  B
vector 872  BasicTopology.peer[5].bitTorrentApp.bitTorrentClient.contentManager_26  TotalBytesDownloaded:vector  ETV
attr source  ContentManager_TotalBytesDownloaded
attr title  "Total of Bytes Downloaded, vector"
attr unit  B
vector 1015  BasicTopology.peer[23].bitTorrentApp.bitTorrentClient.contentManager_26  PiecesDownloaded:vector  ETV
attr source  ContentManager_PieceDownloaded
attr title  "Pieces Downloaded, vector"
vector 1017  BasicTopology.peer[23].bitTorrentApp.bitTorrentClient.contentManager_26  TotalBytesUploaded:vector  ETV
attr source  ContentManager_TotalBytesUploaded
attr title  "Total of Bytes Uploaded, vector"
attr unit  B
vector 863  BasicTopology.peer[4].bitTorrentApp.bitTorrentClient.contentManager_26  PiecesDownloaded:vector  ETV
attr source  ContentManager_PieceDownloaded
attr title  "Pieces Downloaded, vector"
vector 865  BasicTopology.peer[4].bitTorrentApp.bitTorrentClient.contentManager_26  TotalBytesUploaded:vector  ETV
attr source  ContentManager_TotalBytesUploaded
attr title  "Total of Bytes Uploaded, vector"
attr unit  B
vector 880  BasicTopology.peer[6].bitTorrentApp.bitTorrentClient.contentManager_26  TotalBytesDownloaded:vector  ETV
attr source  ContentManager_TotalBytesDownloaded
attr title  "Total of Bytes Downloaded, vector"
attr unit  B
vector 847  BasicTopology.peer[2].bitTorrentApp.bitTorrentClient.contentManager_26  PiecesDownloaded:vector  ETV
attr source  ContentManager_PieceDownloaded
attr title  "Pieces Downloaded, vector"
vector 879  BasicTopology.peer[6].bitTorrentApp.bitTorrentClient.contentManager_26  PiecesDownloaded:vector  ETV
attr source  ContentManager_PieceDownloaded
attr title  "Pieces Downloaded, vector"
vector 881  BasicTopology.peer[6].bitTorrentApp.bitTorrentClient.contentManager_26  TotalBytesUploaded:vector  ETV
attr source  ContentManager_TotalBytesUploaded
attr title  "Total of Bytes Uploaded, vector"
attr unit  B
vector 944  BasicTopology.peer[14].bitTorrentApp.bitTorrentClient.contentManager_26  TotalBytesDownloaded:vector  ETV
attr source  ContentManager_TotalBytesDownloaded
attr title  "Total of Bytes Downloaded, vector"
attr unit  B
vector 927  BasicTopology.peer[12].bitTorrentApp.bitTorrentClient.contentManager_26  PiecesDownloaded:vector  ETV
attr source  ContentManager_PieceDownloaded
attr title  "Pieces Downloaded, vector"
vector 929  BasicTopology.peer[12].bitTorrentApp.bitTorrentClient.contentManager_26  TotalBytesUploaded:vector  ETV
attr source  ContentManager_TotalBytesUploaded
attr title  "Total of Bytes Uploaded, vector"
attr unit  B
vector 968  BasicTopology.peer[17].bitTorrentApp.bitTorrentClient.contentManager_26  TotalBytesDownloaded:vector  ETV
attr source  ContentManager_TotalBytesDownloaded
attr title  "Total of Bytes Downloaded, vector"
attr unit  B
vector 952  BasicTopology.peer[15].bitTorrentApp.bitTorrentClient.contentManager_26  TotalBytesDownloaded:vector  ETV
attr source  ContentManager_TotalBytesDownloaded
attr title  "Total of Bytes Downloaded, vector"
attr unit  B
vector 919  BasicTopology.peer[11].bitTorrentApp.bitTorrentClient.contentManager_26  PiecesDownloaded:vector  ETV
attr source  ContentManager_PieceDownloaded
attr title  "Pieces Downloaded, vector"
vector 1023  BasicTopology.peer[24].bitTorrentApp.bitTorrentClient.contentManager_26  PiecesDownloaded:vector  ETV
attr source  ContentManager_PieceDownloaded
attr title  "Pieces Downloaded, vector"
vector 896  BasicTopology.peer[8].bitTorrentApp.bitTorrentClient.contentManager_26  TotalBytesDownloaded:vector  ETV
attr source  ContentManager_TotalBytesDownloaded
attr title  "Total of Bytes Downloaded, vector"
attr unit  B
vector 951  BasicTopology.peer[15].bitTorrentApp.bitTorrentClient.contentManager_26  PiecesDownloaded:vector  ETV
attr source  ContentManager_PieceDownloaded
attr title  "Pieces Downloaded, vector"
vector 953  BasicTopology.peer[15].bitTorrentApp.bitTorrentClient.contentManager_26  TotalBytesUploaded:vector  ETV
attr source  ContentManager_TotalBytesUploaded
attr title  "Total of Bytes Uploaded, vector"
attr unit  B
vector 921  BasicTopology.peer[11].bitTorrentApp.bitTorrentClient.contentManager_26  TotalBytesUploaded:vector  ETV
attr source  ContentManager_TotalBytesUploaded
attr title  "Total of Bytes Uploaded, vector"
attr unit  B
vector 943  BasicTopology.peer[14].bitTorrentApp.bitTorrentClient.contentManager_26  PiecesDownloaded:vector  ETV
attr source  ContentManager_PieceDownloaded
attr title  "Pieces Downloaded, vector"
vector 904  BasicTopology.peer[9].bitTorrentApp.bitTorrentClient.contentManager_26  TotalBytesDownloaded:vector  ETV
attr source  ContentManager_TotalBytesDownloaded
attr title  "Total of Bytes Downloaded, vector"
attr unit  B
vector 871  BasicTopology.peer[5].bitTorrentApp.bitTorrentClient.contentManager_26  PiecesDownloaded:vector  ETV
attr source  ContentManager_PieceDownloaded
attr title  "Pieces Downloaded, vector"
vector 959  BasicTopology.peer[16].bitTorrentApp.bitTorrentClient.contentManager_26  PiecesDownloaded:vector  ETV
attr source  ContentManager_PieceDownloaded
attr title  "Pieces Downloaded, vector"
vector 888  BasicTopology.peer[7].bitTorrentApp.bitTorrentClient.contentManager_26  TotalBytesDownloaded:vector  ETV
attr source  ContentManager_TotalBytesDownloaded
attr title  "Total of Bytes Downloaded, vector"
attr unit  B
vector 967  BasicTopology.peer[17].bitTorrentApp.bitTorrentClient.contentManager_26  PiecesDownloaded:vector  ETV
attr source  ContentManager_PieceDownloaded
attr title  "Pieces Downloaded, vector"
vector 849  BasicTopology.peer[2].bitTorrentApp.bitTorrentClient.contentManager_26  TotalBytesUploaded:vector  ETV
attr source  ContentManager_TotalBytesUploaded
attr title  "Total of Bytes Uploaded, vector"
attr unit  B
vector 895  BasicTopology.peer[8].bitTorrentApp.bitTorrentClient.contentManager_26  PiecesDownloaded:vector  ETV
attr source  ContentManager_PieceDownloaded
attr title  "Pieces Downloaded, vector"
vector 897  BasicTopology.peer[8].bitTorrentApp.bitTorrentClient.contentManager_26  TotalBytesUploaded:vector  ETV
attr source  ContentManager_TotalBytesUploaded
attr title  "Total of Bytes Uploaded, vector"
attr unit  B
vector 1025  BasicTopology.peer[24].bitTorrentApp.bitTorrentClient.contentManager_26  TotalBytesUploaded:vector  ETV
attr source  ContentManager_TotalBytesUploaded
attr title  "Total of Bytes Uploaded, vector"
attr unit  B
vector 969  BasicTopology.peer[17].bitTorrentApp.bitTorrentClient.contentManager_26  TotalBytesUploaded:vector  ETV
attr source  ContentManager_TotalBytesUploaded
attr title  "Total of Bytes Uploaded, vector"
attr unit  B
vector 903  BasicTopology.peer[9].bitTorrentApp.bitTorrentClient.contentManager_26  PiecesDownloaded:vector  ETV
attr source  ContentManager_PieceDownloaded
attr title  "Pieces Downloaded, vector"
vector 887  BasicTopology.peer[7].bitTorrentApp.bitTorrentClient.contentManager_26  PiecesDownloaded:vector  ETV
attr source  ContentManager_PieceDownloaded
attr title  "Pieces Downloaded, vector"
vector 983  BasicTopology.peer[19].bitTorrentApp.bitTorrentClient.contentManager_26  PiecesDownloaded:vector  ETV
attr source  ContentManager_PieceDownloaded
attr title  "Pieces Downloaded, vector"
vector 889  BasicTopology.peer[7].bitTorrentApp.bitTorrentClient.contentManager_26  TotalBytesUploaded:vector  ETV
attr source  ContentManager_TotalBytesUploaded
attr title  "Total of Bytes Uploaded, vector"
attr unit  B
vector 961  BasicTopology.peer[16].bitTorrentApp.bitTorrentClient.contentManager_26  TotalBytesUploaded:vector  ETV
attr source  ContentManager_TotalBytesUploaded
attr title  "Total of Bytes Uploaded, vector"
attr unit  B
vector 905  BasicTopology.peer[9].bitTorrentApp.bitTorrentClient.contentManager_26  TotalBytesUploaded:vector  ETV
attr source  ContentManager_TotalBytesUploaded
attr title  "Total of Bytes Uploaded, vector"
attr unit  B
vector 873  BasicTopology.peer[5].bitTorrentApp.bitTorrentClient.contentManager_26  TotalBytesUploaded:vector  ETV
attr source  ContentManager_TotalBytesUploaded
attr title  "Total of Bytes Uploaded, vector"
attr unit  B
3	85	36001	36001
3	41892496	36071.875686387987	36071.875686388
5	86	36001	36001
5	35978349	36061.241696485481	36061.241696485
7	87	36001	36001
7	43110505	36074.130982038058	36074.130982038
9	88	36001	36001
9	70304419	36131.454013039616	36131.45401304
11	89	36001	36001
11	77342253	36173.165990974042	36173.165990974
13	90	36001	36001
13	69553513	36129.129453884472	36129.129453884
15	91	36001	36001
15	74412897	36142.460289129369	36142.460289129
17	92	36001	36001
17	69927849	36130.300207046894	36130.300207047
19	93	36001	36001
19	68989900	36127.93155081489	36127.931550815
21	94	36001	36001
21	18648384	36034.226548118363	36034.226548118
23	95	36001	36001
23	77166846	36171.014002375341	36171.014002375
25	96	36001	36001
25	68704810	36126.89112994936	36126.891129949
27	97	36001	36001
27	65369773	36119.578099693702	36119.578099694
29	98	36001	36001
29	78095274	36302.283949965795	36302.283949966
31	99	36001	36001
31	68529776	36126.475963891038	36126.475963891
33	100	36001	36001
33	68757552	36127.435195750889	36127.435195751
35	101	36001	36001
35	72504915	36136.694837532718	36136.694837533
37	102	36001	36001
37	65934318	36120.690215782845	36120.690215783
39	103	36001	36001
39	74669034	36143.006968702591	36143.006968703
41	104	36001	36001
41	50621184	36088.299169414634	36088.299169415
43	105	36001	36001
43	33974696	36057.967323817414	36057.967323817
45	106	36001	36001
45	68173200	36125.608039946056	36125.608039946
47	107	36001	36001
47	49729634	36086.533417141187	36086.533417141
49	108	36001	36001
49	50096916	36087.231978442441	36087.231978442
833	107037	36001.09005679576	32768
833	115695	36001.116534256069	65536
833	116249	36001.118548933359	98304
833	116342	36001.119120865095	131072
833	125347	36001.126370509035	163840
833	139522	36001.139560475501	196608
833	140136	36001.140432430961	229376
833	150459	36001.151244752131	262144
833	159981	36001.163434279141	294912
833	160588	36001.167032132258	327680
833	255274	36001.584992678134	360448
833	258191	36001.595496128397	393216
833	258412	36001.59665187023	425984
833	261536	36001.607631689933	458752
833	263571	36001.614796637973	491520
833	264881	36001.618880891027	524288
833	270634	36001.627532284965	557056
833	280072	36001.643764186483	589824
833	281322	36001.645982719519	622592
833	281665	36001.647144226942	655360
833	289119	36001.66500944103	688128
833	289121	36001.665031268346	720896
833	306228	36001.687752656391	753664
833	307412	36001.691931606592	786432
833	309884	36001.700768268326	819200
833	312030	36001.705692679518	851968
833	313576	36001.70763624176	884736
833	313845	36001.708203317133	917504
833	313923	36001.709253588162	950272
833	319195	36001.729871700522	983040
833	319969	36001.733631191118	1015808
833	320141	36001.734060379792	1048576
833	334736	36001.783824693204	1081344
833	359001	36001.857249029654	1114112
833	371521	36001.903952609807	1146880
833	425489	36002.236936780451	1179648
833	438208	36002.268092471024	1212416
833	508175	36002.535061833504	1245184
833	524422	36002.555657892903	1277952
833	525288	36002.560957299523	1310720
833	526126	36002.590630314551	1343488
833	526133	36002.594862928879	1376256
833	526153	36002.598345264536	1409024
833	526155	36002.60674541865	1441792
833	526157	36002.609781338631	1474560
833	526159	36002.610413398641	1507328
833	526161	36002.620517168308	1540096
833	555447	36002.963392238199	1572864
833	602743	36003.046442841103	1605632
833	648792	36003.137235781732	1638400
833	792982	36003.666133366606	1671168
833	811977	36003.729316454722	1703936
833	825044	36003.774306923834	1736704
833	838890	36003.820183233449	1769472
833	857160	36003.880790258481	1802240
833	863611	36003.937823400057	1835008
833	871712	36003.96584550452	1867776
833	1066112	36004.20555880458	1900544
833	1082424	36004.265735230049	1933312
833	1264048	36004.917031664016	1966080
833	1279397	36004.967457698491	1998848
833	1326969	36005.05704244004	2031616
833	1348472	36005.096710425408	2064384
833	1360263	36005.135309402898	2097152
833	1366998	36005.157885142526	2129920
833	1372106	36005.318023699593	2162688
833	1374969	36005.328305708846	2195456
833	1655604	36006.072191682936	2228224
833	1747891	36006.227213880409	2260992
833	2185436	36007.168173653633	2293760
833	2204922	36007.217837862278	2326528
833	2220155	36007.26789340506	2359296
833	2223637	36007.279645992517	2392064
833	2223952	36007.280759835542	2424832
833	2224155	36007.281519297212	2457600
833	2224500	36007.282812170453	2490368
833	2224717	36007.283380891601	2523136
833	2225269	36007.285237685028	2555904
833	2225362	36007.285460215039	2588672
833	2228219	36007.294539035391	2621440
833	2238117	36007.327925357903	2654208
833	2436670	36007.634534748693	2686976
833	2454386	36007.67302556827	2719744
833	2463913	36007.697793183984	2752512
833	3156418	36009.425858166222	2785280
833	3291014	36009.732443551236	2818048
833	3296812	36009.7506688506	2850816
833	3307231	36009.781115182566	2883584
833	3316821	36009.800780362008	2916352
833	3346877	36009.859730826333	2949120
833	3358514	36009.8746706817	2981888
833	3369834	36009.900008303922	3014656
833	3393465	36009.945729721838	3047424
833	3812802	36010.592658351772	3080192
833	3867549	36010.677837015083	3112960
833	4075381	36010.976043418666	3145728
833	4075935	36010.976832077535	3178496
833	4573018	36012.062629339833	3211264
833	4601497	36012.122598634804	3244032
833	4619340	36012.164933014129	3276800
833	4633997	36012.213074690583	3309568
833	4683755	36012.385550845213	3342336
833	4710764	36012.466692989211	3375104
833	4718814	36012.495694003674	3407872
833	4738515	36012.565061619268	3440640
833	4754724	36012.625714675614	3473408
833	5235270	36013.531788157913	3506176
833	5299308	36013.622482760613	3538944
833	5336764	36013.702961205809	3571712
833	5616823	36014.269753667053	3604480
833	5647855	36014.331268099714	3637248
833	5682056	36014.391970861176	3670016
833	5706094	36014.43397470531	3702784
833	5921340	36014.763502846683	3735552
833	5923865	36014.767071612468	3768320
833	5934822	36014.782201926964	3801088
833	6070395	36015.059948374942	3833856
833	6092624	36015.104210540482	3866624
833	6126478	36015.156882246427	3899392
833	6156240	36015.200565551689	3932160
833	6325283	36015.464161598314	3964928
833	6342975	36015.487957968286	3997696
833	6370049	36015.531272386516	4030464
833	6399254	36015.57681795179	4063232
833	6473318	36015.6915656125	4096000
833	6534577	36015.768656608766	4128768
833	6574025	36015.820328170201	4161536
833	6592206	36015.847936989799	4194304
833	6644751	36015.952629443863	4227072
833	6823717	36016.262473859498	4259840
833	6824016	36016.262810409925	4292608
833	7118202	36016.710179376533	4325376
833	7133943	36016.752208142508	4358144
833	7151003	36016.784357324949	4390912
833	7223871	36016.878878776951	4423680
833	7262354	36016.921905333422	4456448
833	7339319	36017.066741504181	4489216
833	7877575	36017.955022175986	4521984
833	7915852	36018.007277225723	4554752
833	8188465	36018.397839182765	4587520
833	8496147	36018.891355504085	4620288
833	8542455	36018.958729111968	4653056
833	8649831	36019.101327836488	4685824
833	8921085	36019.478434269416	4718592
833	8931186	36019.490703101382	4751360
833	8941519	36019.50374197952	4784128
833	8948237	36019.512077554619	4816896
833	8948347	36019.512242155867	4849664
833	8951519	36019.516081857114	4882432
833	8951906	36019.516529342493	4915200
833	9316137	36020.106126875878	4947968
833	9328402	36020.122666398211	4980736
833	9363570	36020.16994224868	5013504
833	10036291	36021.147931931493	5046272
833	10081582	36021.224986019983	5079040
833	10117146	36021.276238537558	5111808
833	10562655	36021.935185240028	5144576
833	10632927	36022.027706966463	5177344
833	10698063	36022.1023829826	5210112
833	10811197	36022.287213018278	5242880
833	10849952	36022.34680343828	5275648
833	11557555	36023.396662862617	5308416
833	12086077	36024.192093884829	5341184
833	12123666	36024.256502308305	5373952
833	12779920	36025.235063529298	5406720
833	12812835	36025.291633119511	5439488
833	12852062	36025.371841333018	5472256
833	12893686	36025.441782787866	5505024
833	12895839	36025.444722120443	5537792
833	12950905	36025.534699437066	5570560
833	13011917	36025.619526089374	5603328
833	13058413	36025.690100122865	5636096
833	13542349	36026.391688112581	5668864
833	13939627	36027.171205444111	5701632
833	14678322	36028.264984197119	5734400
833	14720759	36028.327602767037	5767168
833	14767412	36028.3939311926	5799936
833	14791769	36028.433902022611	5832704
833	14827310	36028.491340070686	5865472
833	14912783	36028.698654079146	5898240
833	14939531	36028.753560787428	5931008
833	14968295	36028.801921518803	5963776
833	15537621	36029.672500043336	5996544
833	15618224	36029.788221877219	6029312
833	15634470	36029.815577701006	6062080
833	15785628	36030.040263597877	6094848
833	15821571	36030.088837107885	6127616
833	16520655	36031.078447374618	6160384
833	16521084	36031.079147860603	6193152
833	16522006	36031.080709563041	6225920
833	16530699	36031.093044943741	6258688
833	16537171	36031.101737493659	6291456
833	16539009	36031.104455871561	6324224
833	16540142	36031.105836779011	6356992
833	16540370	36031.106120136502	6389760
833	16540713	36031.106496239447	6422528
833	16541029	36031.106832545621	6455296
833	17305884	36032.243433017189	6488064
833	17416778	36032.422477390846	6520832
833	18214768	36033.532840590145	6553600
833	19507018	36035.540014302871	6586368
833	20696748	36037.27262550483	6619136
833	20733179	36037.326984511669	6651904