version 2
run Test-4-20200425-12:20:31-9290
attr configname Test
attr datetime 20200425-12:20:31
attr experiment "\"Simulation Test\""
attr inifile BasicConfig.ini
attr iterationvars ""
attr iterationvars2 $repetition=4
attr measurement "\"Peers: $peers, Rate: $rate\""
attr network BasicTopology
attr processid 9290
attr repetition 4
attr replication #4
attr resultdir results
attr runnumber 4
attr seedset 4

vector 3  BasicTopology.peer[1].bitTorrentApp.bitTorrentClient  DownloadComplete_Test:vector  ETV
attr source  BitTorrentClient_DownloadComplete_Test
attr title  "Descargas completas (prueba), vector"
vector 5  BasicTopology.peer[2].bitTorrentApp.bitTorrentClient  DownloadComplete_Test:vector  ETV
attr source  BitTorrentClient_DownloadComplete_Test
attr title  "Descargas completas (prueba), vector"
vector 7  BasicTopology.peer[3].bitTorrentApp.bitTorrentClient  DownloadComplete_Test:vector  ETV
attr source  BitTorrentClient_DownloadComplete_Test
attr title  "Descargas completas (prueba), vector"
vector 9  BasicTopology.peer[4].bitTorrentApp.bitTorrentClient  DownloadComplete_Test:vector  ETV
attr source  BitTorrentClient_DownloadComplete_Test
attr title  "Descargas completas (prueba), vector"
vector 11  BasicTopology.peer[5].bitTorrentApp.bitTorrentClient  DownloadComplete_Test:vector  ETV
attr source  BitTorrentClient_DownloadComplete_Test
attr title  "Descargas completas (prueba), vector"
vector 13  BasicTopology.peer[6].bitTorrentApp.bitTorrentClient  DownloadComplete_Test:vector  ETV
attr source  BitTorrentClient_DownloadComplete_Test
attr title  "Descargas completas (prueba), vector"
vector 15  BasicTopology.peer[7].bitTorrentApp.bitTorrentClient  DownloadComplete_Test:vector  ETV
attr source  BitTorrentClient_DownloadComplete_Test
attr title  "Descargas completas (prueba), vector"
vector 17  BasicTopology.peer[8].bitTorrentApp.bitTorrentClient  DownloadComplete_Test:vector  ETV
attr source  BitTorrentClient_DownloadComplete_Test
attr title  "Descargas completas (prueba), vector"
vector 19  BasicTopology.peer[9].bitTorrentApp.bitTorrentClient  DownloadComplete_Test:vector  ETV
attr source  BitTorrentClient_DownloadComplete_Test
attr title  "Descargas completas (prueba), vector"
vector 21  BasicTopology.peer[10].bitTorrentApp.bitTorrentClient  DownloadComplete_Test:vector  ETV
attr source  BitTorrentClient_DownloadComplete_Test
attr title  "Descargas completas (prueba), vector"
vector 23  BasicTopology.peer[11].bitTorrentApp.bitTorrentClient  DownloadComplete_Test:vector  ETV
attr source  BitTorrentClient_DownloadComplete_Test
attr title  "Descargas completas (prueba), vector"
vector 25  BasicTopology.peer[12].bitTorrentApp.bitTorrentClient  DownloadComplete_Test:vector  ETV
attr source  BitTorrentClient_DownloadComplete_Test
attr title  "Descargas completas (prueba), vector"
vector 27  BasicTopology.peer[13].bitTorrentApp.bitTorrentClient  DownloadComplete_Test:vector  ETV
attr source  BitTorrentClient_DownloadComplete_Test
attr title  "Descargas completas (prueba), vector"
vector 29  BasicTopology.peer[14].bitTorrentApp.bitTorrentClient  DownloadComplete_Test:vector  ETV
attr source  BitTorrentClient_DownloadComplete_Test
attr title  "Descargas completas (prueba), vector"
vector 31  BasicTopology.peer[15].bitTorrentApp.bitTorrentClient  DownloadComplete_Test:vector  ETV
attr source  BitTorrentClient_DownloadComplete_Test
attr title  "Descargas completas (prueba), vector"
vector 33  BasicTopology.peer[16].bitTorrentApp.bitTorrentClient  DownloadComplete_Test:vector  ETV
attr source  BitTorrentClient_DownloadComplete_Test
attr title  "Descargas completas (prueba), vector"
vector 35  BasicTopology.peer[17].bitTorrentApp.bitTorrentClient  DownloadComplete_Test:vector  ETV
attr source  BitTorrentClient_DownloadComplete_Test
attr title  "Descargas completas (prueba), vector"
vector 37  BasicTopology.peer[18].bitTorrentApp.bitTorrentClient  DownloadComplete_Test:vector  ETV
attr source  BitTorrentClient_DownloadComplete_Test
attr title  "Descargas completas (prueba), vector"
vector 39  BasicTopology.peer[19].bitTorrentApp.bitTorrentClient  DownloadComplete_Test:vector  ETV
attr source  BitTorrentClient_DownloadComplete_Test
attr title  "Descargas completas (prueba), vector"
vector 41  BasicTopology.peer[20].bitTorrentApp.bitTorrentClient  DownloadComplete_Test:vector  ETV
attr source  BitTorrentClient_DownloadComplete_Test
attr title  "Descargas completas (prueba), vector"
vector 43  BasicTopology.peer[21].bitTorrentApp.bitTorrentClient  DownloadComplete_Test:vector  ETV
attr source  BitTorrentClient_DownloadComplete_Test
attr title  "Descargas completas (prueba), vector"
vector 45  BasicTopology.peer[22].bitTorrentApp.bitTorrentClient  DownloadComplete_Test:vector  ETV
attr source  BitTorrentClient_DownloadComplete_Test
attr title  "Descargas completas (prueba), vector"
vector 47  BasicTopology.peer[23].bitTorrentApp.bitTorrentClient  DownloadComplete_Test:vector  ETV
attr source  BitTorrentClient_DownloadComplete_Test
attr title  "Descargas completas (prueba), vector"
vector 49  BasicTopology.peer[24].bitTorrentApp.bitTorrentClient  DownloadComplete_Test:vector  ETV
attr source  BitTorrentClient_DownloadComplete_Test
attr title  "Descargas completas (prueba), vector"
vector 833  BasicTopology.peer[0].bitTorrentApp.bitTorrentClient.contentManager_26  TotalBytesUploaded:vector  ETV
attr source  ContentManager_TotalBytesUploaded
attr title  "Total of Bytes Uploaded, vector"
attr unit  B
vector 840  BasicTopology.peer[1].bitTorrentApp.bitTorrentClient.contentManager_26  TotalBytesDownloaded:vector  ETV
attr source  ContentManager_TotalBytesDownloaded
attr title  "Total of Bytes Downloaded, vector"
attr unit  B
vector 1008  BasicTopology.peer[22].bitTorrentApp.bitTorrentClient.contentManager_26  TotalBytesDownloaded:vector  ETV
attr source  ContentManager_TotalBytesDownloaded
attr title  "Total of Bytes Downloaded, vector"
attr unit  B
vector 864  BasicTopology.peer[4].bitTorrentApp.bitTorrentClient.contentManager_26  TotalBytesDownloaded:vector  ETV
attr source  ContentManager_TotalBytesDownloaded
attr title  "Total of Bytes Downloaded, vector"
attr unit  B
vector 839  BasicTopology.peer[1].bitTorrentApp.bitTorrentClient.contentManager_26  PiecesDownloaded:vector  ETV
attr source  ContentManager_PieceDownloaded
attr title  "Pieces Downloaded, vector"
vector 841  BasicTopology.peer[1].bitTorrentApp.bitTorrentClient.contentManager_26  TotalBytesUploaded:vector  ETV
attr source  ContentManager_TotalBytesUploaded
attr title  "Total of Bytes Uploaded, vector"
attr unit  B
vector 992  BasicTopology.peer[20].bitTorrentApp.bitTorrentClient.contentManager_26  TotalBytesDownloaded:vector  ETV
attr source  ContentManager_TotalBytesDownloaded
attr title  "Total of Bytes Downloaded, vector"
attr unit  B
vector 1016  BasicTopology.peer[23].bitTorrentApp.bitTorrentClient.contentManager_26  TotalBytesDownloaded:vector  ETV
attr source  ContentManager_TotalBytesDownloaded
attr title  "Total of Bytes Downloaded, vector"
attr unit  B
vector 936  BasicTopology.peer[13].bitTorrentApp.bitTorrentClient.contentManager_26  TotalBytesDownloaded:vector  ETV
attr source  ContentManager_TotalBytesDownloaded
attr title  "Total of Bytes Downloaded, vector"
attr unit  B
vector 991  BasicTopology.peer[20].bitTorrentApp.bitTorrentClient.contentManager_26  PiecesDownloaded:vector  ETV
attr source  ContentManager_PieceDownloaded
attr title  "Pieces Downloaded, vector"
vector 993  BasicTopology.peer[20].bitTorrentApp.bitTorrentClient.contentManager_26  TotalBytesUploaded:vector  ETV
attr source  ContentManager_TotalBytesUploaded
attr title  "Total of Bytes Uploaded, vector"
attr unit  B
vector 848  BasicTopology.peer[2].bitTorrentApp.bitTorrentClient.contentManager_26  TotalBytesDownloaded:vector  ETV
attr source  ContentManager_TotalBytesDownloaded
attr title  "Total of Bytes Downloaded, vector"
attr unit  B
vector 863  BasicTopology.peer[4].bitTorrentApp.bitTorrentClient.contentManager_26  PiecesDownloaded:vector  ETV
attr source  ContentManager_PieceDownloaded
attr title  "Pieces Downloaded, vector"
vector 865  BasicTopology.peer[4].bitTorrentApp.bitTorrentClient.contentManager_26  TotalBytesUploaded:vector  ETV
attr source  ContentManager_TotalBytesUploaded
attr title  "Total of Bytes Uploaded, vector"
attr unit  B
vector 856  BasicTopology.peer[3].bitTorrentApp.bitTorrentClient.contentManager_26  TotalBytesDownloaded:vector  ETV
attr source  ContentManager_TotalBytesDownloaded
attr title  "Total of Bytes Downloaded, vector"
attr unit  B
vector 928  BasicTopology.peer[12].bitTorrentApp.bitTorrentClient.contentManager_26  TotalBytesDownloaded:vector  ETV
attr source  ContentManager_TotalBytesDownloaded
attr title  "Total of Bytes Downloaded, vector"
attr unit  B
vector 1015  BasicTopology.peer[23].bitTorrentApp.bitTorrentClient.contentManager_26  PiecesDownloaded:vector  ETV
attr source  ContentManager_PieceDownloaded
attr title  "Pieces Downloaded, vector"
vector 1017  BasicTopology.peer[23].bitTorrentApp.bitTorrentClient.contentManager_26  TotalBytesUploaded:vector  ETV
attr source  ContentManager_TotalBytesUploaded
attr title  "Total of Bytes Uploaded, vector"
attr unit  B
vector 912  BasicTopology.peer[10].bitTorrentApp.bitTorrentClient.contentManager_26  TotalBytesDownloaded:vector  ETV
attr source  ContentManager_TotalBytesDownloaded
attr title  "Total of Bytes Downloaded, vector"
attr unit  B
vector 984  BasicTopology.peer[19].bitTorrentApp.bitTorrentClient.contentManager_26  TotalBytesDownloaded:vector  ETV
attr source  ContentManager_TotalBytesDownloaded
attr title  "Total of Bytes Downloaded, vector"
attr unit  B
vector 888  BasicTopology.peer[7].bitTorrentApp.bitTorrentClient.contentManager_26  TotalBytesDownloaded:vector  ETV
attr source  ContentManager_TotalBytesDownloaded
attr title  "Total of Bytes Downloaded, vector"
attr unit  B
vector 1007  BasicTopology.peer[22].bitTorrentApp.bitTorrentClient.contentManager_26  PiecesDownloaded:vector  ETV
attr source  ContentManager_PieceDownloaded
attr title  "Pieces Downloaded, vector"
vector 1009  BasicTopology.peer[22].bitTorrentApp.bitTorrentClient.contentManager_26  TotalBytesUploaded:vector  ETV
attr source  ContentManager_TotalBytesUploaded
attr title  "Total of Bytes Uploaded, vector"
attr unit  B
vector 887  BasicTopology.peer[7].bitTorrentApp.bitTorrentClient.contentManager_26  PiecesDownloaded:vector  ETV
attr source  ContentManager_PieceDownloaded
attr title  "Pieces Downloaded, vector"
vector 889  BasicTopology.peer[7].bitTorrentApp.bitTorrentClient.contentManager_26  TotalBytesUploaded:vector  ETV
attr source  ContentManager_TotalBytesUploaded
attr title  "Total of Bytes Uploaded, vector"
attr unit  B
vector 872  BasicTopology.peer[5].bitTorrentApp.bitTorrentClient.contentManager_26  TotalBytesDownloaded:vector  ETV
attr source  ContentManager_TotalBytesDownloaded
attr title  "Total of Bytes Downloaded, vector"
attr unit  B
vector 920  BasicTopology.peer[11].bitTorrentApp.bitTorrentClient.contentManager_26  TotalBytesDownloaded:vector  ETV
attr source  ContentManager_TotalBytesDownloaded
attr title  "Total of Bytes Downloaded, vector"
attr unit  B
vector 976  BasicTopology.peer[18].bitTorrentApp.bitTorrentClient.contentManager_26  TotalBytesDownloaded:vector  ETV
attr source  ContentManager_TotalBytesDownloaded
attr title  "Total of Bytes Downloaded, vector"
attr unit  B
vector 904  BasicTopology.peer[9].bitTorrentApp.bitTorrentClient.contentManager_26  TotalBytesDownloaded:vector  ETV
attr source  ContentManager_TotalBytesDownloaded
attr title  "Total of Bytes Downloaded, vector"
attr unit  B
vector 880  BasicTopology.peer[6].bitTorrentApp.bitTorrentClient.contentManager_26  TotalBytesDownloaded:vector  ETV
attr source  ContentManager_TotalBytesDownloaded
attr title  "Total of Bytes Downloaded, vector"
attr unit  B
vector 855  BasicTopology.peer[3].bitTorrentApp.bitTorrentClient.contentManager_26  PiecesDownloaded:vector  ETV
attr source  ContentManager_PieceDownloaded
attr title  "Pieces Downloaded, vector"
vector 944  BasicTopology.peer[14].bitTorrentApp.bitTorrentClient.contentManager_26  TotalBytesDownloaded:vector  ETV
attr source  ContentManager_TotalBytesDownloaded
attr title  "Total of Bytes Downloaded, vector"
attr unit  B
vector 919  BasicTopology.peer[11].bitTorrentApp.bitTorrentClient.contentManager_26  PiecesDownloaded:vector  ETV
attr source  ContentManager_PieceDownloaded
attr title  "Pieces Downloaded, vector"
vector 921  BasicTopology.peer[11].bitTorrentApp.bitTorrentClient.contentManager_26  TotalBytesUploaded:vector  ETV
attr source  ContentManager_TotalBytesUploaded
attr title  "Total of Bytes Uploaded, vector"
attr unit  B
vector 871  BasicTopology.peer[5].bitTorrentApp.bitTorrentClient.contentManager_26  PiecesDownloaded:vector  ETV
attr source  ContentManager_PieceDownloaded
attr title  "Pieces Downloaded, vector"
vector 873  BasicTopology.peer[5].bitTorrentApp.bitTorrentClient.contentManager_26  TotalBytesUploaded:vector  ETV
attr source  ContentManager_TotalBytesUploaded
attr title  "Total of Bytes Uploaded, vector"
attr unit  B
vector 952  BasicTopology.peer[15].bitTorrentApp.bitTorrentClient.contentManager_26  TotalBytesDownloaded:vector  ETV
attr source  ContentManager_TotalBytesDownloaded
attr title  "Total of Bytes Downloaded, vector"
attr unit  B
vector 935  BasicTopology.peer[13].bitTorrentApp.bitTorrentClient.contentManager_26  PiecesDownloaded:vector  ETV
attr source  ContentManager_PieceDownloaded
attr title  "Pieces Downloaded, vector"
vector 975  BasicTopology.peer[18].bitTorrentApp.bitTorrentClient.contentManager_26  PiecesDownloaded:vector  ETV
attr source  ContentManager_PieceDownloaded
attr title  "Pieces Downloaded, vector"
vector 879  BasicTopology.peer[6].bitTorrentApp.bitTorrentClient.contentManager_26  PiecesDownloaded:vector  ETV
attr source  ContentManager_PieceDownloaded
attr title  "Pieces Downloaded, vector"
vector 968  BasicTopology.peer[17].bitTorrentApp.bitTorrentClient.contentManager_26  TotalBytesDownloaded:vector  ETV
attr source  ContentManager_TotalBytesDownloaded
attr title  "Total of Bytes Downloaded, vector"
attr unit  B
vector 1000  BasicTopology.peer[21].bitTorrentApp.bitTorrentClient.contentManager_26  TotalBytesDownloaded:vector  ETV
attr source  ContentManager_TotalBytesDownloaded
attr title  "Total of Bytes Downloaded, vector"
attr unit  B
vector 967  BasicTopology.peer[17].bitTorrentApp.bitTorrentClient.contentManager_26  PiecesDownloaded:vector  ETV
attr source  ContentManager_PieceDownloaded
attr title  "Pieces Downloaded, vector"
vector 983  BasicTopology.peer[19].bitTorrentApp.bitTorrentClient.contentManager_26  PiecesDownloaded:vector  ETV
attr source  ContentManager_PieceDownloaded
attr title  "Pieces Downloaded, vector"
vector 951  BasicTopology.peer[15].bitTorrentApp.bitTorrentClient.contentManager_26  PiecesDownloaded:vector  ETV
attr source  ContentManager_PieceDownloaded
attr title  "Pieces Downloaded, vector"
vector 903  BasicTopology.peer[9].bitTorrentApp.bitTorrentClient.contentManager_26  PiecesDownloaded:vector  ETV
attr source  ContentManager_PieceDownloaded
attr title  "Pieces Downloaded, vector"
vector 857  BasicTopology.peer[3].bitTorrentApp.bitTorrentClient.contentManager_26  TotalBytesUploaded:vector  ETV
attr source  ContentManager_TotalBytesUploaded
attr title  "Total of Bytes Uploaded, vector"
attr unit  B
vector 1024  BasicTopology.peer[24].bitTorrentApp.bitTorrentClient.contentManager_26  TotalBytesDownloaded:vector  ETV
attr source  ContentManager_TotalBytesDownloaded
attr title  "Total of Bytes Downloaded, vector"
attr unit  B
vector 999  BasicTopology.peer[21].bitTorrentApp.bitTorrentClient.contentManager_26  PiecesDownloaded:vector  ETV
attr source  ContentManager_PieceDownloaded
attr title  "Pieces Downloaded, vector"
vector 1023  BasicTopology.peer[24].bitTorrentApp.bitTorrentClient.contentManager_26  PiecesDownloaded:vector  ETV
attr source  ContentManager_PieceDownloaded
attr title  "Pieces Downloaded, vector"
vector 896  BasicTopology.peer[8].bitTorrentApp.bitTorrentClient.contentManager_26  TotalBytesDownloaded:vector  ETV
attr source  ContentManager_TotalBytesDownloaded
attr title  "Total of Bytes Downloaded, vector"
attr unit  B
vector 847  BasicTopology.peer[2].bitTorrentApp.bitTorrentClient.contentManager_26  PiecesDownloaded:vector  ETV
attr source  ContentManager_PieceDownloaded
attr title  "Pieces Downloaded, vector"
vector 849  BasicTopology.peer[2].bitTorrentApp.bitTorrentClient.contentManager_26  TotalBytesUploaded:vector  ETV
attr source  ContentManager_TotalBytesUploaded
attr title  "Total of Bytes Uploaded, vector"
attr unit  B
vector 969  BasicTopology.peer[17].bitTorrentApp.bitTorrentClient.contentManager_26  TotalBytesUploaded:vector  ETV
attr source  ContentManager_TotalBytesUploaded
attr title  "Total of Bytes Uploaded, vector"
attr unit  B
vector 960  BasicTopology.peer[16].bitTorrentApp.bitTorrentClient.contentManager_26  TotalBytesDownloaded:vector  ETV
attr source  ContentManager_TotalBytesDownloaded
attr title  "Total of Bytes Downloaded, vector"
attr unit  B
vector 927  BasicTopology.peer[12].bitTorrentApp.bitTorrentClient.contentManager_26  PiecesDownloaded:vector  ETV
attr source  ContentManager_PieceDownloaded
attr title  "Pieces Downloaded, vector"
vector 929  BasicTopology.peer[12].bitTorrentApp.bitTorrentClient.contentManager_26  TotalBytesUploaded:vector  ETV
attr source  ContentManager_TotalBytesUploaded
attr title  "Total of Bytes Uploaded, vector"
attr unit  B
vector 943  BasicTopology.peer[14].bitTorrentApp.bitTorrentClient.contentManager_26  PiecesDownloaded:vector  ETV
attr source  ContentManager_PieceDownloaded
attr title  "Pieces Downloaded, vector"
vector 905  BasicTopology.peer[9].bitTorrentApp.bitTorrentClient.contentManager_26  TotalBytesUploaded:vector  ETV
attr source  ContentManager_TotalBytesUploaded
attr title  "Total of Bytes Uploaded, vector"
attr unit  B
vector 959  BasicTopology.peer[16].bitTorrentApp.bitTorrentClient.contentManager_26  PiecesDownloaded:vector  ETV
attr source  ContentManager_PieceDownloaded
attr title  "Pieces Downloaded, vector"
vector 1001  BasicTopology.peer[21].bitTorrentApp.bitTorrentClient.contentManager_26  TotalBytesUploaded:vector  ETV
attr source  ContentManager_TotalBytesUploaded
attr title  "Total of Bytes Uploaded, vector"
attr unit  B
vector 961  BasicTopology.peer[16].bitTorrentApp.bitTorrentClient.contentManager_26  TotalBytesUploaded:vector  ETV
attr source  ContentManager_TotalBytesUploaded
attr title  "Total of Bytes Uploaded, vector"
attr unit  B
vector 911  BasicTopology.peer[10].bitTorrentApp.bitTorrentClient.contentManager_26  PiecesDownloaded:vector  ETV
attr source  ContentManager_PieceDownloaded
attr title  "Pieces Downloaded, vector"
vector 945  BasicTopology.peer[14].bitTorrentApp.bitTorrentClient.contentManager_26  TotalBytesUploaded:vector  ETV
attr source  ContentManager_TotalBytesUploaded
attr title  "Total of Bytes Uploaded, vector"
attr unit  B
vector 913  BasicTopology.peer[10].bitTorrentApp.bitTorrentClient.contentManager_26  TotalBytesUploaded:vector  ETV
attr source  ContentManager_TotalBytesUploaded
attr title  "Total of Bytes Uploaded, vector"
attr unit  B
vector 895  BasicTopology.peer[8].bitTorrentApp.bitTorrentClient.contentManager_26  PiecesDownloaded:vector  ETV
attr source  ContentManager_PieceDownloaded
attr title  "Pieces Downloaded, vector"
vector 937  BasicTopology.peer[13].bitTorrentApp.bitTorrentClient.contentManager_26  TotalBytesUploaded:vector  ETV
attr source  ContentManager_TotalBytesUploaded
attr title  "Total of Bytes Uploaded, vector"
attr unit  B
vector 897  BasicTopology.peer[8].bitTorrentApp.bitTorrentClient.contentManager_26  TotalBytesUploaded:vector  ETV
attr source  ContentManager_TotalBytesUploaded
attr title  "Total of Bytes Uploaded, vector"
attr unit  B
vector 1025  BasicTopology.peer[24].bitTorrentApp.bitTorrentClient.contentManager_26  TotalBytesUploaded:vector  ETV
attr source  ContentManager_TotalBytesUploaded
attr title  "Total of Bytes Uploaded, vector"
attr unit  B
vector 985  BasicTopology.peer[19].bitTorrentApp.bitTorrentClient.contentManager_26  TotalBytesUploaded:vector  ETV
attr source  ContentManager_TotalBytesUploaded
attr title  "Total of Bytes Uploaded, vector"
attr unit  B
vector 881  BasicTopology.peer[6].bitTorrentApp.bitTorrentClient.contentManager_26  TotalBytesUploaded:vector  ETV
attr source  ContentManager_TotalBytesUploaded
attr title  "Total of Bytes Uploaded, vector"
attr unit  B
3	85	36001	36001
3	48038131	36084.864094934163	36084.864094934
5	86	36001	36001
5	50520439	36089.850060344002	36089.850060344
7	87	36001	36001
7	48358943	36085.534040540941	36085.534040541
9	88	36001	36001
9	66652472	36124.342530164034	36124.342530164
11	89	36001	36001
11	72192665	36138.392291381952	36138.392291382
13	90	36001	36001
13	65541683	36121.84869364194	36121.848693642
15	91	36001	36001
15	63190480	36116.440573785977	36116.440573786
17	92	36001	36001
17	71157405	36135.33513913552	36135.335139136
19	93	36001	36001
19	73542157	36147.126120364501	36147.126120365
21	94	36001	36001
21	44845521	36078.73887844177	36078.738878442
23	95	36001	36001
23	43010332	36075.3881128887	36075.388112889
25	96	36001	36001
25	66809612	36124.699540953644	36124.699540954
27	97	36001	36001
27	62985660	36115.987475921885	36115.987475922
29	98	36001	36001
29	67607447	36126.284893465617	36126.284893466
31	99	36001	36001
31	72751295	36140.474598272538	36140.474598273
33	100	36001	36001
33	64909382	36120.291849324472	36120.291849324
35	101	36001	36001
35	68824876	36128.896116301762	36128.896116302
37	102	36001	36001
37	70526616	36133.489415499331	36133.489415499
39	103	36001	36001
39	71641349	36136.689016786586	36136.689016787
41	104	36001	36001
41	64062425	36118.431750063946	36118.431750064
43	105	36001	36001
43	51586068	36092.094937960322	36092.09493796
45	106	36001	36001
45	73757034	36302.531927084952	36302.531927085
47	107	36001	36001
47	53202018	36095.21224633036	36095.21224633
49	108	36001	36001
49	65283481	36121.087848363877	36121.087848364
833	156510	36001.141489103124	32768
833	174822	36001.16239203241	65536
833	175098	36001.162694568548	98304
833	187995	36001.183349485997	131072
833	189429	36001.18710691618	163840
833	191127	36001.191544070193	196608
833	192967	36001.195343246165	229376
833	198562	36001.210138188489	262144
833	198670	36001.210558539145	294912
833	203163	36001.224338923011	327680
833	203349	36001.22493303274	360448
833	218321	36001.270991922431	393216
833	229295	36001.304431244516	425984
833	330101	36001.592590806823	458752
833	336446	36001.609876191973	491520
833	336556	36001.610137992694	524288
833	337040	36001.611737783187	557056
833	345180	36001.642520904337	589824
833	346365	36001.64508479079	622592
833	346428	36001.645246268324	655360
833	354747	36001.660896401156	688128
833	358951	36001.671610578345	720896
833	358953	36001.671704692009	753664
833	366713	36001.730912946039	786432
833	367262	36001.732276744694	819200
833	368637	36001.736342376016	851968
833	370210	36001.740508206202	884736
833	373328	36001.750476721053	917504
833	373330	36001.751041931164	950272
833	373602	36001.753371929696	983040
833	374051	36001.755101389041	1015808
833	377118	36001.764867357272	1048576
833	383389	36001.779335732407	1081344
833	433646	36002.346900911846	1114112
833	445739	36002.383910904407	1146880
833	512118	36002.550102351996	1179648
833	530659	36002.570625770518	1212416
833	531248	36002.571467514825	1245184
833	537719	36002.582531895524	1277952
833	548524	36002.599087906562	1310720
833	558669	36002.630702512536	1343488
833	564902	36002.65918765938	1376256
833	565770	36002.660873363243	1409024
833	566175	36002.661687627731	1441792
833	566623	36002.662443472681	1474560
833	583561	36002.867817334278	1507328
833	600350	36002.920742762702	1540096
833	636227	36003.228274703925	1572864
833	673030	36003.33145387134	1605632
833	708964	36003.424125157706	1638400
833	725259	36003.472058647041	1671168
833	753270	36003.554693905109	1703936
833	759614	36003.573461307514	1736704
833	788098	36003.967526334678	1769472
833	1192488	36004.639260341956	1802240
833	1242259	36004.708951332601	1835008
833	1502851	36005.729680235233	1867776
833	1535464	36006.017579017026	1900544
833	1535466	36006.027246345419	1933312
833	1535468	36006.043153828393	1966080
833	1535470	36006.044221099565	1998848
833	1544550	36006.333180785445	2031616
833	1571047	36006.406497759428	2064384
833	1601159	36006.48355601083	2097152
833	2058219	36007.63943041267	2129920
833	2069152	36007.656861146468	2162688
833	2090310	36007.701709524661	2195456
833	2133985	36007.794961756037	2228224
833	2150863	36007.852174863909	2260992
833	2163224	36007.890016540751	2293760
833	2234568	36008.128084633331	2326528
833	2249549	36008.176688245397	2359296
833	2267070	36008.229878422385	2392064
833	2293256	36008.308248424808	2424832
833	2496810	36008.792103272249	2457600
833	2546508	36008.867840771697	2490368
833	2790928	36009.41380737446	2523136
833	3056452	36009.942702234884	2555904
833	3618299	36011.007250992039	2588672
833	4222615	36012.143242848478	2621440
833	4266634	36012.229068309059	2654208
833	4415439	36012.540331299074	2686976
833	5103721	36013.703452519466	2719744
833	5186131	36013.857652115177	2752512
833	5423498	36014.302021489194	2785280
833	5425163	36014.30572394148	2818048
833	5428685	36014.314804160372	2850816
833	5433977	36014.330144693961	2883584
833	5436265	36014.336136250385	2916352
833	5623996	36014.705979799304	2949120
833	5694454	36014.81599923928	2981888
833	5755805	36014.925707431606	3014656
833	5803121	36015.027819302322	3047424
833	5876073	36015.135200192398	3080192
833	5881147	36015.142088668691	3112960
833	5907217	36015.21542312184	3145728
833	6459000	36016.227726555183	3178496
833	6483300	36016.304962089763	3211264
833	6498661	36016.366476411895	3244032
833	6539306	36016.449325020675	3276800
833	6909199	36017.068801980724	3309568
833	7120264	36017.559891728646	3342336
833	7160050	36017.623551104003	3375104
833	7208260	36017.706997276922	3407872
833	7243160	36017.764822349631	3440640
833	7822708	36018.824078144921	3473408
833	7860840	36018.881829425537	3506176
833	7906260	36018.943735995162	3538944
833	7952222	36019.007210350239	3571712
833	8042229	36019.187319692022	3604480
833	8473997	36020.12310231087	3637248
833	8501975	36020.165680479539	3670016
833	9082367	36021.278947367727	3702784
833	9091528	36021.292482533238	3735552
833	9101097	36021.310504886025	3768320
833	9104582	36021.319655289564	3801088
833	9273204	36021.579497515902	3833856
833	10033175	36022.745741494854	3866624
833	10458923	36023.387813858988	3899392
833	10539819	36023.546914961487	3932160
833	10608870	36023.663050602266	3964928
833	10643791	36023.714947256383	3997696
833	10701747	36023.798217091499	4030464
833	10743121	36023.861597977631	4063232
833	10889676	36024.112149525921	4096000
833	11311960	36024.938462211536	4128768
833	11318283	36024.94816186451	4161536
833	12029721	36026.050881579561	4194304
833	12090826	36026.138520736667	4227072
833	12824293	36027.23509680702	4259840
833	12870673	36027.302294912071	4292608
833	13522133	36028.357423149009	4325376
833	13573895	36028.428997884587	4358144
833	13626810	36028.51148790934	4390912
833	14421695	36029.650330106673	4423680
833	15047959	36030.787762201616	4456448
833	15101023	36030.880719580275	4489216
833	15720639	36031.938761860489	4521984
833	15745372	36031.978624042659	4554752
833	15803911	36032.074359976584	4587520
833	15987607	36032.365677742487	4620288
833	16549480	36033.213777466279	4653056
833	16665247	36033.378179705223	4685824
833	16750024	36033.498107904012	4718592
833	17137666	36034.169893964434	4751360
833	17213494	36034.280710319423	4784128
833	17424235	36034.616591206686	4816896
833	19578206	36038.093570935413	4849664
833	19641168	36038.181511116682	4882432
833	20271393	36039.302717908233	4915200
833	21628330	36041.440468175406	4947968
833	23719414	36044.774655418565	4980736
833	24478616	36045.829123912403	5013504
833	24576781	36045.959213618242	5046272
833	24676817	36046.07779061334	5079040
833	24680773	36046.081570789074	5111808
833	24684672	36046.086599330378	5144576
833	24696924	36046.102771421383	5177344
833	24703521	36046.113504885092	5210112
833	24706249	36046.117068171678	5242880
833	24715007	36046.130093404911	5275648
833	24726563	36046.149397543606	5308416
833	24730131	36046.159310788203	5341184
833	24730140	36046.159348191146	5373952
833	26918553	36049.895897485566	5406720
833	26940702	36049.925636604959	5439488
833	27179837	36050.324973788206	5472256
833	27244946	36050.43647109643	5505024
833	28667670	36052.617713284892	5537792
833	28746263	36052.775529435314	5570560
833	28822375	36052.920632573133	5603328
833	28973586	36053.150143742866	5636096
833	29597911	36054.12914517572	5668864
833	29744730	36054.38644198069	5701632
833	31740292	36057.705073131307	5734400
833	31750281	36057.719548990284	5767168
833	31754964	36057.726964698338	5799936
833	31768211	36057.747646252193	5832704
833	31768475	36057.748150278112	5865472
833	31776668	36057.759525751832	5898240
833	31777190	36057.76052071764	5931008
833	31782780	36057.770763541043	5963776
833	31783932	36057.773914386152	5996544
833	31783950	36057.773962945226	6029312
833	33474611	36060.680145936248	6062080
833	39272602	36069.532932020971	6094848
833	42050796	36073.739952283688	6127616
833	42218607	36074.005486256203	6160384
833	43509973	36076.226716370066	6193152
833	43615025	36076.394450752878	6225920
833	45812298	36080.571694820845	6258688
833	48376411	36085.572388506525	6291456
839	755220	36003.561224158436	5
839	5897823	36015.185721852334	11
839	9134234	36021.382715168347	9
839	9403501	36021.759470386344	1
839	11538970	36025.245874186545	2
839	14024870	36029.02230060699	3
839	18671270	36036.551622143207	7
839	22612845	36043.040495323169	4
839	26187974	36048.731169167023	8
839	27671008	36051.047992821736	6
839	31724886	36057.678712450343	10
839	48038131	36084.864094934163	0