version 2
run Test-16-20200425-12:23:29-9414
attr configname Test
attr datetime 20200425-12:23:29
attr experiment "\"Simulation Test\""
attr inifile BasicConfig.ini
attr iterationvars ""
attr iterationvars2 $repetition=16
attr measurement "\"Peers: $peers, Rate: $rate\""
attr network BasicTopology
attr processid 9414
attr repetition 16
attr replication #16
attr resultdir results
attr runnumber 16
attr seedset 16

vector 3  BasicTopology.peer[1].bitTorrentApp.bitTorrentClient  DownloadComplete_Test:vector  ETV
attr source  BitTorrentClient_DownloadComplete_Test
attr title  "Descargas completas (prueba), vector"
vector 5  BasicTopology.peer[2].bitTorrentApp.bitTorrentClient  DownloadComplete_Test:vector  ETV
attr source  BitTorrentClient_DownloadComplete_Test
attr title  "Descargas completas (prueba), vector"
vector 7  BasicTopology.peer[3].bitTorrentApp.bitTorrentClient  DownloadComplete_Test:vector  ETV
attr source  BitTorrentClient_DownloadComplete_Test
attr title  "Descargas completas (prueba), vector"
vector 9  BasicTopology.peer[4].bitTorrentApp.bitTorrentClient  DownloadComplete_Test:vector  ETV
attr source  BitTorrentClient_DownloadComplete_Test
attr title  "Descargas completas (prueba), vector"
vector 11  BasicTopology.peer[5].bitTorrentApp.bitTorrentClient  DownloadComplete_Test:vector  ETV
attr source  BitTorrentClient_DownloadComplete_Test
attr title  "Descargas completas (prueba), vector"
vector 13  BasicTopology.peer[6].bitTorrentApp.bitTorrentClient  DownloadComplete_Test:vector  ETV
attr source  BitTorrentClient_DownloadComplete_Test
attr title  "Descargas completas (prueba), vector"
vector 15  BasicTopology.peer[7].bitTorrentApp.bitTorrentClient  DownloadComplete_Test:vector  ETV
attr source  BitTorrentClient_DownloadComplete_Test
attr title  "Descargas completas (prueba), vector"
vector 17  BasicTopology.peer[8].bitTorrentApp.bitTorrentClient  DownloadComplete_Test:vector  ETV
attr source  BitTorrentClient_DownloadComplete_Test
attr title  "Descargas completas (prueba), vector"
vector 19  BasicTopology.peer[9].bitTorrentApp.bitTorrentClient  DownloadComplete_Test:vector  ETV
attr source  BitTorrentClient_DownloadComplete_Test
attr title  "Descargas completas (prueba), vector"
vector 21  BasicTopology.peer[10].bitTorrentApp.bitTorrentClient  DownloadComplete_Test:vector  ETV
attr source  BitTorrentClient_DownloadComplete_Test
attr title  "Descargas completas (prueba), vector"
vector 23  BasicTopology.peer[11].bitTorrentApp.bitTorrentClient  DownloadComplete_Test:vector  ETV
attr source  BitTorrentClient_DownloadComplete_Test
attr title  "Descargas completas (prueba), vector"
vector 25  BasicTopology.peer[12].bitTorrentApp.bitTorrentClient  DownloadComplete_Test:vector  ETV
attr source  BitTorrentClient_DownloadComplete_Test
attr title  "Descargas completas (prueba), vector"
vector 27  BasicTopology.peer[13].bitTorrentApp.bitTorrentClient  DownloadComplete_Test:vector  ETV
attr source  BitTorrentClient_DownloadComplete_Test
attr title  "Descargas completas (prueba), vector"
vector 29  BasicTopology.peer[14].bitTorrentApp.bitTorrentClient  DownloadComplete_Test:vector  ETV
attr source  BitTorrentClient_DownloadComplete_Test
attr title  "Descargas completas (prueba), vector"
vector 31  BasicTopology.peer[15].bitTorrentApp.bitTorrentClient  DownloadComplete_Test:vector  ETV
attr source  BitTorrentClient_DownloadComplete_Test
attr title  "Descargas completas (prueba), vector"
vector 33  BasicTopology.peer[16].bitTorrentApp.bitTorrentClient  DownloadComplete_Test:vector  ETV
attr source  BitTorrentClient_DownloadComplete_Test
attr title  "Descargas completas (prueba), vector"
vector 35  BasicTopology.peer[17].bitTorrentApp.bitTorrentClient  DownloadComplete_Test:vector  ETV
attr source  BitTorrentClient_DownloadComplete_Test
attr title  "Descargas completas (prueba), vector"
vector 37  BasicTopology.peer[18].bitTorrentApp.bitTorrentClient  DownloadComplete_Test:vector  ETV
attr source  BitTorrentClient_DownloadComplete_Test
attr title  "Descargas completas (prueba), vector"
vector 39  BasicTopology.peer[19].bitTorrentApp.bitTorrentClient  DownloadComplete_Test:vector  ETV
attr source  BitTorrentClient_DownloadComplete_Test
attr title  "Descargas completas (prueba), vector"
vector 41  BasicTopology.peer[20].bitTorrentApp.bitTorrentClient  DownloadComplete_Test:vector  ETV
attr source  BitTorrentClient_DownloadComplete_Test
attr title  "Descargas completas (prueba), vector"
vector 43  BasicTopology.peer[21].bitTorrentApp.bitTorrentClient  DownloadComplete_Test:vector  ETV
attr source  BitTorrentClient_DownloadComplete_Test
attr title  "Descargas completas (prueba), vector"
vector 45  BasicTopology.peer[22].bitTorrentApp.bitTorrentClient  DownloadComplete_Test:vector  ETV
attr source  BitTorrentClient_DownloadComplete_Test
attr title  "Descargas completas (prueba), vector"
vector 47  BasicTopology.peer[23].bitTorrentApp.bitTorrentClient  DownloadComplete_Test:vector  ETV
attr source  BitTorrentClient_DownloadComplete_Test
attr title  "Descargas completas (prueba), vector"
vector 49  BasicTopology.peer[24].bitTorrentApp.bitTorrentClient  DownloadComplete_Test:vector  ETV
attr source  BitTorrentClient_DownloadComplete_Test
attr title  "Descargas completas (prueba), vector"
vector 833  BasicTopology.peer[0].bitTorrentApp.bitTorrentClient.contentManager_26  TotalBytesUploaded:vector  ETV
attr source  ContentManager_TotalBytesUploaded
attr title  "Total of Bytes Uploaded, vector"
attr unit  B
vector 1000  BasicTopology.peer[21].bitTorrentApp.bitTorrentClient.contentManager_26  TotalBytesDownloaded:vector  ETV
attr source  ContentManager_TotalBytesDownloaded
attr title  "Total of Bytes Downloaded, vector"
attr unit  B
vector 912  BasicTopology.peer[10].bitTorrentApp.bitTorrentClient.contentManager_26  TotalBytesDownloaded:vector  ETV
attr source  ContentManager_TotalBytesDownloaded
attr title  "Total of Bytes Downloaded, vector"
attr unit  B
vector 992  BasicTopology.peer[20].bitTorrentApp.bitTorrentClient.contentManager_26  TotalBytesDownloaded:vector  ETV
attr source  ContentManager_TotalBytesDownloaded
attr title  "Total of Bytes Downloaded, vector"
attr unit  B
vector 911  BasicTopology.peer[10].bitTorrentApp.bitTorrentClient.contentManager_26  PiecesDownloaded:vector  ETV
attr source  ContentManager_PieceDownloaded
attr title  "Pieces Downloaded, vector"
vector 913  BasicTopology.peer[10].bitTorrentApp.bitTorrentClient.contentManager_26  TotalBytesUploaded:vector  ETV
attr source  ContentManager_TotalBytesUploaded
attr title  "Total of Bytes Uploaded, vector"
attr unit  B
vector 999  BasicTopology.peer[21].bitTorrentApp.bitTorrentClient.contentManager_26  PiecesDownloaded:vector  ETV
attr source  ContentManager_PieceDownloaded
attr title  "Pieces Downloaded, vector"
vector 1001  BasicTopology.peer[21].bitTorrentApp.bitTorrentClient.contentManager_26  TotalBytesUploaded:vector  ETV
attr source  ContentManager_TotalBytesUploaded
attr title  "Total of Bytes Uploaded, vector"
attr unit  B
vector 991  BasicTopology.peer[20].bitTorrentApp.bitTorrentClient.contentManager_26  PiecesDownloaded:vector  ETV
attr source  ContentManager_PieceDownloaded
attr title  "Pieces Downloaded, vector"
vector 993  BasicTopology.peer[20].bitTorrentApp.bitTorrentClient.contentManager_26  TotalBytesUploaded:vector  ETV
attr source  ContentManager_TotalBytesUploaded
attr title  "Total of Bytes Uploaded, vector"
attr unit  B
vector 1008  BasicTopology.peer[22].bitTorrentApp.bitTorrentClient.contentManager_26  TotalBytesDownloaded:vector  ETV
attr source  ContentManager_TotalBytesDownloaded
attr title  "Total of Bytes Downloaded, vector"
attr unit  B
vector 888  BasicTopology.peer[7].bitTorrentApp.bitTorrentClient.contentManager_26  TotalBytesDownloaded:vector  ETV
attr source  ContentManager_TotalBytesDownloaded
attr title  "Total of Bytes Downloaded, vector"
attr unit  B
vector 840  BasicTopology.peer[1].bitTorrentApp.bitTorrentClient.contentManager_26  TotalBytesDownloaded:vector  ETV
attr source  ContentManager_TotalBytesDownloaded
attr title  "Total of Bytes Downloaded, vector"
attr unit  B
vector 872  BasicTopology.peer[5].bitTorrentApp.bitTorrentClient.contentManager_26  TotalBytesDownloaded:vector  ETV
attr source  ContentManager_TotalBytesDownloaded
attr title  "Total of Bytes Downloaded, vector"
attr unit  B
vector 896  BasicTopology.peer[8].bitTorrentApp.bitTorrentClient.contentManager_26  TotalBytesDownloaded:vector  ETV
attr source  ContentManager_TotalBytesDownloaded
attr title  "Total of Bytes Downloaded, vector"
attr unit  B
vector 839  BasicTopology.peer[1].bitTorrentApp.bitTorrentClient.contentManager_26  PiecesDownloaded:vector  ETV
attr source  ContentManager_PieceDownloaded
attr title  "Pieces Downloaded, vector"
vector 841  BasicTopology.peer[1].bitTorrentApp.bitTorrentClient.contentManager_26  TotalBytesUploaded:vector  ETV
attr source  ContentManager_TotalBytesUploaded
attr title  "Total of Bytes Uploaded, vector"
attr unit  B
vector 848  BasicTopology.peer[2].bitTorrentApp.bitTorrentClient.contentManager_26  TotalBytesDownloaded:vector  ETV
attr source  ContentManager_TotalBytesDownloaded
attr title  "Total of Bytes Downloaded, vector"
attr unit  B
vector 847  BasicTopology.peer[2].bitTorrentApp.bitTorrentClient.contentManager_26  PiecesDownloaded:vector  ETV
attr source  ContentManager_PieceDownloaded
attr title  "Pieces Downloaded, vector"
vector 849  BasicTopology.peer[2].bitTorrentApp.bitTorrentClient.contentManager_26  TotalBytesUploaded:vector  ETV
attr source  ContentManager_TotalBytesUploaded
attr title  "Total of Bytes Uploaded, vector"
attr unit  B
vector 936  BasicTopology.peer[13].bitTorrentApp.bitTorrentClient.contentManager_26  TotalBytesDownloaded:vector  ETV
attr source  ContentManager_TotalBytesDownloaded
attr title  "Total of Bytes Downloaded, vector"
attr unit  B
vector 864  BasicTopology.peer[4].bitTorrentApp.bitTorrentClient.contentManager_26  TotalBytesDownloaded:vector  ETV
attr source  ContentManager_TotalBytesDownloaded
attr title  "Total of Bytes Downloaded, vector"
attr unit  B
vector 880  BasicTopology.peer[6].bitTorrentApp.bitTorrentClient.contentManager_26  TotalBytesDownloaded:vector  ETV
attr source  ContentManager_TotalBytesDownloaded
attr title  "Total of Bytes Downloaded, vector"
attr unit  B
vector 944  BasicTopology.peer[14].bitTorrentApp.bitTorrentClient.contentManager_26  TotalBytesDownloaded:vector  ETV
attr source  ContentManager_TotalBytesDownloaded
attr title  "Total of Bytes Downloaded, vector"
attr unit  B
vector 960  BasicTopology.peer[16].bitTorrentApp.bitTorrentClient.contentManager_26  TotalBytesDownloaded:vector  ETV
attr source  ContentManager_TotalBytesDownloaded
attr title  "Total of Bytes Downloaded, vector"
attr unit  B
vector 952  BasicTopology.peer[15].bitTorrentApp.bitTorrentClient.contentManager_26  TotalBytesDownloaded:vector  ETV
attr source  ContentManager_TotalBytesDownloaded
attr title  "Total of Bytes Downloaded, vector"
attr unit  B
vector 920  BasicTopology.peer[11].bitTorrentApp.bitTorrentClient.contentManager_26  TotalBytesDownloaded:vector  ETV
attr source  ContentManager_TotalBytesDownloaded
attr title  "Total of Bytes Downloaded, vector"
attr unit  B
vector 904  BasicTopology.peer[9].bitTorrentApp.bitTorrentClient.contentManager_26  TotalBytesDownloaded:vector  ETV
attr source  ContentManager_TotalBytesDownloaded
attr title  "Total of Bytes Downloaded, vector"
attr unit  B
vector 959  BasicTopology.peer[16].bitTorrentApp.bitTorrentClient.contentManager_26  PiecesDownloaded:vector  ETV
attr source  ContentManager_PieceDownloaded
attr title  "Pieces Downloaded, vector"
vector 961  BasicTopology.peer[16].bitTorrentApp.bitTorrentClient.contentManager_26  TotalBytesUploaded:vector  ETV
attr source  ContentManager_TotalBytesUploaded
attr title  "Total of Bytes Uploaded, vector"
attr unit  B
vector 1016  BasicTopology.peer[23].bitTorrentApp.bitTorrentClient.contentManager_26  TotalBytesDownloaded:vector  ETV
attr source  ContentManager_TotalBytesDownloaded
attr title  "Total of Bytes Downloaded, vector"
attr unit  B
vector 871  BasicTopology.peer[5].bitTorrentApp.bitTorrentClient.contentManager_26  PiecesDownloaded:vector  ETV
attr source  ContentManager_PieceDownloaded
attr title  "Pieces Downloaded, vector"
vector 879  BasicTopology.peer[6].bitTorrentApp.bitTorrentClient.contentManager_26  PiecesDownloaded:vector  ETV
attr source  ContentManager_PieceDownloaded
attr title  "Pieces Downloaded, vector"
vector 1007  BasicTopology.peer[22].bitTorrentApp.bitTorrentClient.contentManager_26  PiecesDownloaded:vector  ETV
attr source  ContentManager_PieceDownloaded
attr title  "Pieces Downloaded, vector"
vector 984  BasicTopology.peer[19].bitTorrentApp.bitTorrentClient.contentManager_26  TotalBytesDownloaded:vector  ETV
attr source  ContentManager_TotalBytesDownloaded
attr title  "Total of Bytes Downloaded, vector"
attr unit  B
vector 1009  BasicTopology.peer[22].bitTorrentApp.bitTorrentClient.contentManager_26  TotalBytesUploaded:vector  ETV
attr source  ContentManager_TotalBytesUploaded
attr title  "Total of Bytes Uploaded, vector"
attr unit  B
vector 863  BasicTopology.peer[4].bitTorrentApp.bitTorrentClient.contentManager_26  PiecesDownloaded:vector  ETV
attr source  ContentManager_PieceDownloaded
attr title  "Pieces Downloaded, vector"
vector 968  BasicTopology.peer[17].bitTorrentApp.bitTorrentClient.contentManager_26  TotalBytesDownloaded:vector  ETV
attr source  ContentManager_TotalBytesDownloaded
attr title  "Total of Bytes Downloaded, vector"
attr unit  B
vector 1015  BasicTopology.peer[23].bitTorrentApp.bitTorrentClient.contentManager_26  PiecesDownloaded:vector  ETV
attr source  ContentManager_PieceDownloaded
attr title  "Pieces Downloaded, vector"
vector 967  BasicTopology.peer[17].bitTorrentApp.bitTorrentClient.contentManager_26  PiecesDownloaded:vector  ETV
attr source  ContentManager_PieceDownloaded
attr title  "Pieces Downloaded, vector"
vector 873  BasicTopology.peer[5].bitTorrentApp.bitTorrentClient.contentManager_26  TotalBytesUploaded:vector  ETV
attr source  ContentManager_TotalBytesUploaded
attr title  "Total of Bytes Uploaded, vector"
attr unit  B
vector 856  BasicTopology.peer[3].bitTorrentApp.bitTorrentClient.contentManager_26  TotalBytesDownloaded:vector  ETV
attr source  ContentManager_TotalBytesDownloaded
attr title  "Total of Bytes Downloaded, vector"
attr unit  B
vector 1024  BasicTopology.peer[24].bitTorrentApp.bitTorrentClient.contentManager_26  TotalBytesDownloaded:vector  ETV
attr source  ContentManager_TotalBytesDownloaded
attr title  "Total of Bytes Downloaded, vector"
attr unit  B
vector 976  BasicTopology.peer[18].bitTorrentApp.bitTorrentClient.contentManager_26  TotalBytesDownloaded:vector  ETV
attr source  ContentManager_TotalBytesDownloaded
attr title  "Total of Bytes Downloaded, vector"
attr unit  B
vector 865  BasicTopology.peer[4].bitTorrentApp.bitTorrentClient.contentManager_26  TotalBytesUploaded:vector  ETV
attr source  ContentManager_TotalBytesUploaded
attr title  "Total of Bytes Uploaded, vector"
attr unit  B
vector 928  BasicTopology.peer[12].bitTorrentApp.bitTorrentClient.contentManager_26  TotalBytesDownloaded:vector  ETV
attr source  ContentManager_TotalBytesDownloaded
attr title  "Total of Bytes Downloaded, vector"
attr unit  B
vector 855  BasicTopology.peer[3].bitTorrentApp.bitTorrentClient.contentManager_26  PiecesDownloaded:vector  ETV
attr source  ContentManager_PieceDownloaded
attr title  "Pieces Downloaded, vector"
vector 1023  BasicTopology.peer[24].bitTorrentApp.bitTorrentClient.contentManager_26  PiecesDownloaded:vector  ETV
attr source  ContentManager_PieceDownloaded
attr title  "Pieces Downloaded, vector"
vector 943  BasicTopology.peer[14].bitTorrentApp.bitTorrentClient.contentManager_26  PiecesDownloaded:vector  ETV
attr source  ContentManager_PieceDownloaded
attr title  "Pieces Downloaded, vector"
vector 1025  BasicTopology.peer[24].bitTorrentApp.bitTorrentClient.contentManager_26  TotalBytesUploaded:vector  ETV
attr source  ContentManager_TotalBytesUploaded
attr title  "Total of Bytes Uploaded, vector"
attr unit  B
vector 895  BasicTopology.peer[8].bitTorrentApp.bitTorrentClient.contentManager_26  PiecesDownloaded:vector  ETV
attr source  ContentManager_PieceDownloaded
attr title  "Pieces Downloaded, vector"
vector 857  BasicTopology.peer[3].bitTorrentApp.bitTorrentClient.contentManager_26  TotalBytesUploaded:vector  ETV
attr source  ContentManager_TotalBytesUploaded
attr title  "Total of Bytes Uploaded, vector"
attr unit  B
vector 951  BasicTopology.peer[15].bitTorrentApp.bitTorrentClient.contentManager_26  PiecesDownloaded:vector  ETV
attr source  ContentManager_PieceDownloaded
attr title  "Pieces Downloaded, vector"
vector 935  BasicTopology.peer[13].bitTorrentApp.bitTorrentClient.contentManager_26  PiecesDownloaded:vector  ETV
attr source  ContentManager_PieceDownloaded
attr title  "Pieces Downloaded, vector"
vector 903  BasicTopology.peer[9].bitTorrentApp.bitTorrentClient.contentManager_26  PiecesDownloaded:vector  ETV
attr source  ContentManager_PieceDownloaded
attr title  "Pieces Downloaded, vector"
vector 927  BasicTopology.peer[12].bitTorrentApp.bitTorrentClient.contentManager_26  PiecesDownloaded:vector  ETV
attr source  ContentManager_PieceDownloaded
attr title  "Pieces Downloaded, vector"
vector 919  BasicTopology.peer[11].bitTorrentApp.bitTorrentClient.contentManager_26  PiecesDownloaded:vector  ETV
attr source  ContentManager_PieceDownloaded
attr title  "Pieces Downloaded, vector"
vector 953  BasicTopology.peer[15].bitTorrentApp.bitTorrentClient.contentManager_26  TotalBytesUploaded:vector  ETV
attr source  ContentManager_TotalBytesUploaded
attr title  "Total of Bytes Uploaded, vector"
attr unit  B
vector 929  BasicTopology.peer[12].bitTorrentApp.bitTorrentClient.contentManager_26  TotalBytesUploaded:vector  ETV
attr source  ContentManager_TotalBytesUploaded
attr title  "Total of Bytes Uploaded, vector"
attr unit  B
vector 1017  BasicTopology.peer[23].bitTorrentApp.bitTorrentClient.contentManager_26  TotalBytesUploaded:vector  ETV
attr source  ContentManager_TotalBytesUploaded
attr title  "Total of Bytes Uploaded, vector"
attr unit  B
vector 975  BasicTopology.peer[18].bitTorrentApp.bitTorrentClient.contentManager_26  PiecesDownloaded:vector  ETV
attr source  ContentManager_PieceDownloaded
attr title  "Pieces Downloaded, vector"
vector 983  BasicTopology.peer[19].bitTorrentApp.bitTorrentClient.contentManager_26  PiecesDownloaded:vector  ETV
attr source  ContentManager_PieceDownloaded
attr title  "Pieces Downloaded, vector"
vector 887  BasicTopology.peer[7].bitTorrentApp.bitTorrentClient.contentManager_26  PiecesDownloaded:vector  ETV
attr source  ContentManager_PieceDownloaded
attr title  "Pieces Downloaded, vector"
vector 889  BasicTopology.peer[7].bitTorrentApp.bitTorrentClient.contentManager_26  TotalBytesUploaded:vector  ETV
attr source  ContentManager_TotalBytesUploaded
attr title  "Total of Bytes Uploaded, vector"
attr unit  B
vector 921  BasicTopology.peer[11].bitTorrentApp.bitTorrentClient.contentManager_26  TotalBytesUploaded:vector  ETV
attr source  ContentManager_TotalBytesUploaded
attr title  "Total of Bytes Uploaded, vector"
attr unit  B
vector 897  BasicTopology.peer[8].bitTorrentApp.bitTorrentClient.contentManager_26  TotalBytesUploaded:vector  ETV
attr source  ContentManager_TotalBytesUploaded
attr title  "Total of Bytes Uploaded, vector"
attr unit  B
vector 905  BasicTopology.peer[9].bitTorrentApp.bitTorrentClient.contentManager_26  TotalBytesUploaded:vector  ETV
attr source  ContentManager_TotalBytesUploaded
attr title  "Total of Bytes Uploaded, vector"
attr unit  B
vector 881  BasicTopology.peer[6].bitTorrentApp.bitTorrentClient.contentManager_26  TotalBytesUploaded:vector  ETV
attr source  ContentManager_TotalBytesUploaded
attr title  "Total of Bytes Uploaded, vector"
attr unit  B
vector 937  BasicTopology.peer[13].bitTorrentApp.bitTorrentClient.contentManager_26  TotalBytesUploaded:vector  ETV
attr source  ContentManager_TotalBytesUploaded
attr title  "Total of Bytes Uploaded, vector"
attr unit  B
vector 985  BasicTopology.peer[19].bitTorrentApp.bitTorrentClient.contentManager_26  TotalBytesUploaded:vector  ETV
attr source  ContentManager_TotalBytesUploaded
attr title  "Total of Bytes Uploaded, vector"
attr unit  B
3	85	36001	36001
3	48892721	36088.750510367195	36088.750510367
5	86	36001	36001
5	57583325	36106.426162211091	36106.426162211
7	87	36001	36001
7	64038384	36120.666505848698	36120.666505849
9	88	36001	36001
9	74179617	36143.591250788853	36143.591250789
11	89	36001	36001
11	82467637	36163.272664077149	36163.272664077
13	90	36001	36001
13	82139577	36162.348715567657	36162.348715568
15	91	36001	36001
15	68905774	36131.515208684053	36131.515208684
17	92	36001	36001
17	77332943	36151.647964325373	36151.647964325
19	93	36001	36001
19	83262416	36165.106905575076	36165.106905575
21	94	36001	36001
21	60244281	36112.079999010863	36112.079999011
23	95	36001	36001
23	85177234	36171.315785897884	36171.315785898
25	96	36001	36001
25	75623716	36148.085133436334	36148.085133436
27	97	36001	36001
27	65799002	36124.678597920579	36124.678597921
29	98	36001	36001
29	80325545	36158.242042492999	36158.242042493
31	99	36001	36001
31	82749285	36164.044407841777	36164.044407842
33	100	36001	36001
33	72151846	36138.669835245783	36138.669835246
35	101	36001	36001
35	78428043	36154.044756085328	36154.044756085
37	102	36001	36001
37	86877965	36184.762148735571	36184.762148736
39	103	36001	36001
39	86173481	36181.583981571875	36181.583981572
41	104	36001	36001
41	74313487	36144.516632683938	36144.516632684
43	105	36001	36001
43	35444130	36064.495468398607	36064.495468399
45	106	36001	36001
45	63739909	36120.053344265637	36120.053344266
47	107	36001	36001
47	46167383	36083.23361986285	36083.233619863
49	108	36001	36001
49	55794269	36102.32242671215	36102.322426712
833	105840	36001.083043094312	32768
833	106556	36001.083951598378	65536
833	107101	36001.08472378018	98304
833	109666	36001.087790619481	131072
833	109710	36001.087923881271	163840
833	110691	36001.088995857206	196608
833	120132	36001.103195027725	229376
833	120284	36001.103892604501	262144
833	123462	36001.114508918733	294912
833	136812	36001.132651722618	327680
833	157761	36001.160433096075	360448
833	158659	36001.161628318078	393216
833	168904	36001.175910459581	425984
833	175683	36001.184775272694	458752
833	176018	36001.185233214799	491520
833	177657	36001.187836563108	524288
833	180049	36001.191907860961	557056
833	182576	36001.211708263644	589824
833	182578	36001.213403297977	622592
833	182580	36001.214015353267	655360
833	468298	36002.587132214424	688128
833	481926	36002.629914175619	720896
833	483188	36002.634171234272	753664
833	485410	36002.639141198326	786432
833	491909	36002.64932263037	819200
833	495700	36002.662788031556	851968
833	495962	36002.663361614114	884736
833	496044	36002.663629289251	917504
833	496516	36002.664474425848	950272
833	499217	36002.670720441212	983040
833	499342	36002.670968853354	1015808
833	499651	36002.671728114778	1048576
833	500425	36002.673259943914	1081344
833	506512	36002.685810572805	1114112
833	510319	36002.694569089837	1146880
833	521325	36002.724654412298	1179648
833	521539	36002.725502723053	1212416
833	521658	36002.725758269975	1245184
833	523445	36002.733227461994	1277952
833	530324	36002.760077495649	1310720
833	537279	36002.782299050284	1343488
833	537445	36002.78266846687	1376256
833	537541	36002.78293271817	1409024
833	549096	36002.829742292025	1441792
833	567369	36002.898310522028	1474560
833	615782	36003.712764263084	1507328
833	705766	36003.965841660828	1540096
833	884739	36004.159055086756	1572864
833	1131351	36005.09195832771	1605632
833	1211714	36005.2535460771	1638400
833	1260474	36005.35606567696	1671168
833	1276010	36005.418701673429	1703936
833	1290648	36005.488264977099	1736704
833	1293195	36005.526308412905	1769472
833	1301602	36005.554650065846	1802240
833	1302953	36005.563340694366	1835008
833	1303698	36005.58452116787	1867776
833	1303819	36005.594893938016	1900544
833	1303821	36005.59521189796	1933312
833	1303825	36005.596938650826	1966080
833	1352423	36006.193964034276	1998848
833	1382056	36006.293652671959	2031616
833	1391181	36006.320228953954	2064384
833	1402146	36006.351434977012	2097152
833	1426659	36006.417286094809	2129920
833	1445084	36006.513856756484	2162688
833	1462034	36006.589791976563	2195456
833	1493079	36006.690986793118	2228224
833	1813093	36007.446568999374	2260992
833	1833180	36007.500443467059	2293760
833	1915804	36007.782560177657	2326528
833	2245640	36008.543284747334	2359296
833	2429660	36008.943693498954	2392064
833	2459609	36009.017868582348	2424832
833	2625307	36009.407159296253	2457600
833	2683979	36009.542255193753	2490368
833	2771558	36009.713083804039	2523136
833	2805896	36009.776596039865	2555904
833	2858758	36009.868605302044	2588672
833	2907841	36009.95860778377	2621440
833	3091760	36010.18844715861	2654208
833	3092865	36010.190665428454	2686976
833	3099801	36010.207952303543	2719744
833	3635162	36011.660160024905	2752512
833	3674292	36011.734912667192	2785280
833	3830214	36012.110630552414	2818048
833	4815616	36014.218966110362	2850816
833	4859522	36014.29068295457	2883584
833	5324757	36015.186250088506	2916352
833	5375064	36015.293158541178	2949120
833	5601771	36015.686499493338	2981888
833	5682284	36015.864797679761	3014656
833	5973252	36016.483020357288	3047424
833	6029064	36016.549545861153	3080192
833	6071604	36016.601511805039	3112960
833	6130247	36016.682459422211	3145728
833	6183494	36016.756446656538	3178496
833	6891444	36017.973298346592	3211264
833	6909292	36018.020931643053	3244032
833	6979950	36018.134601319465	3276800
833	7583437	36019.199513554058	3309568
833	7652751	36019.304781544882	3342336
833	8772907	36021.403526885736	3375104
833	9376947	36022.354389509153	3407872
833	9451923	36022.462793089648	3440640
833	9839425	36023.167938938847	3473408
833	10144095	36023.624404848866	3506176
833	10159488	36023.663302519753	3538944
833	10179925	36023.722717251403	3571712
833	11120083	36025.498478643775	3604480
833	11332628	36025.86589680813	3637248
833	11719995	36026.56201542392	3670016
833	11819672	36026.71628000246	3702784
833	11886566	36026.822254475685	3735552
833	12593978	36028.013124474562	3768320
833	12713255	36028.189555483884	3801088
833	13802196	36029.961682806123	3833856
833	13992782	36030.253171730793	3866624
833	14754209	36031.379557561212	3899392
833	14804146	36031.444723735989	3932160
833	14860372	36031.517766784725	3964928
833	15211526	36032.040476924481	3997696
833	15218110	36032.049108320085	4030464
833	15222254	36032.056443455319	4063232
833	15235880	36032.076754990828	4096000
833	15236108	36032.07703867796	4128768
833	15236740	36032.077867822255	4161536
833	15240343	36032.082295396681	4194304
833	15240698	36032.082894955768	4227072
833	15248028	36032.093285499828	4259840
833	15256510	36032.106581913226	4292608
833	15298362	36032.168183691081	4325376
833	16110951	36033.460258210505	4358144
833	16495882	36034.003941934091	4390912
833	16944668	36034.60955865798	4423680
833	17251684	36035.062747427266	4456448
833	17253314	36035.06439301898	4489216
833	17253563	36035.064655366561	4521984
833	17259725	36035.071814484985	4554752
833	17517947	36035.467749349203	4587520
833	17692641	36035.709656938947	4620288
833	18271391	36036.627080516115	4653056
833	18327254	36036.701383019208	4685824
833	18476105	36036.965002994878	4718592
833	19338730	36038.30418440427	4751360
833	19585668	36038.710371324064	4784128
833	19592833	36038.72071686945	4816896
833	19593320	36038.721509321515	4849664
833	19608931	36038.745159761132	4882432
833	20049375	36039.426249708591	4915200
833	20127843	36039.529521890481	4947968
833	20199081	36039.666989422351	4980736
833	20268538	36039.772938137894	5013504
833	20268682	36039.77309642815	5046272
833	20740018	36040.489952693953	5079040
833	20765143	36040.53466637862	5111808
833	22203344	36042.863897700459	5144576
833	22947428	36044.057249389407	5177344
833	23001088	36044.134097088484	5210112
833	23042702	36044.194454917441	5242880
833	23085467	36044.261833844408	5275648
833	23434810	36044.933075467264	5308416
833	23515542	36045.058854677806	5341184
833	23625837	36045.225905403113	5373952
833	23687779	36045.338148734307	5406720
833	23731531	36045.409170144625	5439488
833	24137562	36046.077034088553	5472256
833	24137760	36046.077289854873	5505024
833	24138925	36046.078527303675	5537792
833	24139670	36046.079250004623	5570560
833	24142473	36046.081897860458	5603328
833	24143022	36046.082739321937	5636096
833	24144590	36046.085010736144	5668864
833	24144642	36046.085184521524	5701632
833	24153585	36046.094700498394	5734400
833	24174976	36046.116699670565	5767168
833	24335970	36046.384885109724	5799936
833	24388210	36046.453971753519	5832704
833	24823337	36047.233077660079	5865472
833	24862638	36047.289650065873	5898240
833	25032919	36047.547345199108	5931008
833	25165375	36047.742327095915	5963776
833	25498584	36048.311743969682	5996544
833	25522343	36048.34843560609	6029312
833	25539536	36048.375193508446	6062080
833	25646474	36048.547409978319	6094848
833	25867864	36048.880206883882	6127616
833	25954492	36049.009866651403	6160384
833	26225684	36049.401839080273	6193152
833	26256664	36049.45084214078	6225920
833	26890945	36050.394934462882	6258688
833	26893090	36050.398802380126	6291456
833	26893606	36050.399939865927	6324224
833	26953135	36050.486343121173	6356992
833	26955074	36050.488822368117	6389760
833	27018678	36050.579424964651	6422528
833	27060330	36050.640345935511	6455296
833	27092950	36050.682144300107	6488064
833	27122950	36050.727125143603	6520832
833	27150970	36050.768971021842	6553600
833	27429307	36051.15332576433	6586368
833	27471827	36051.203201210242	6619136
833	27547643	36051.290940822391	6651904
833	28086739	36052.116654945895	6684672
833	28207285	36052.337676605103	6717440
833	28288947	36052.471154882062	6750208
833	28300052	36052.488770402929	6782976