version 2
run Test-8-20200425-12:21:30-9331
attr configname Test
attr datetime 20200425-12:21:30
attr experiment "\"Simulation Test\""
attr inifile BasicConfig.ini
attr iterationvars ""
attr iterationvars2 $repetition=8
attr measurement "\"Peers: $peers, Rate: $rate\""
attr network BasicTopology
attr processid 9331
attr repetition 8
attr replication #8
attr resultdir results
attr runnumber 8
attr seedset 8

vector 3  BasicTopology.peer[1].bitTorrentApp.bitTorrentClient  DownloadComplete_Test:vector  ETV
attr source  BitTorrentClient_DownloadComplete_Test
attr title  "Descargas completas (prueba), vector"
vector 5  BasicTopology.peer[2].bitTorrentApp.bitTorrentClient  DownloadComplete_Test:vector  ETV
attr source  BitTorrentClient_DownloadComplete_Test
attr title  "Descargas completas (prueba), vector"
vector 7  BasicTopology.peer[3].bitTorrentApp.bitTorrentClient  DownloadComplete_Test:vector  ETV
attr source  BitTorrentClient_DownloadComplete_Test
attr title  "Descargas completas (prueba), vector"
vector 9  BasicTopology.peer[4].bitTorrentApp.bitTorrentClient  DownloadComplete_Test:vector  ETV
attr source  BitTorrentClient_DownloadComplete_Test
attr title  "Descargas completas (prueba), vector"
vector 11  BasicTopology.peer[5].bitTorrentApp.bitTorrentClient  DownloadComplete_Test:vector  ETV
attr source  BitTorrentClient_DownloadComplete_Test
attr title  "Descargas completas (prueba), vector"
vector 13  BasicTopology.peer[6].bitTorrentApp.bitTorrentClient  DownloadComplete_Test:vector  ETV
attr source  BitTorrentClient_DownloadComplete_Test
attr title  "Descargas completas (prueba), vector"
vector 15  BasicTopology.peer[7].bitTorrentApp.bitTorrentClient  DownloadComplete_Test:vector  ETV
attr source  BitTorrentClient_DownloadComplete_Test
attr title  "Descargas completas (prueba), vector"
vector 17  BasicTopology.peer[8].bitTorrentApp.bitTorrentClient  DownloadComplete_Test:vector  ETV
attr source  BitTorrentClient_DownloadComplete_Test
attr title  "Descargas completas (prueba), vector"
vector 19  BasicTopology.peer[9].bitTorrentApp.bitTorrentClient  DownloadComplete_Test:vector  ETV
attr source  BitTorrentClient_DownloadComplete_Test
attr title  "Descargas completas (prueba), vector"
vector 21  BasicTopology.peer[10].bitTorrentApp.bitTorrentClient  DownloadComplete_Test:vector  ETV
attr source  BitTorrentClient_DownloadComplete_Test
attr title  "Descargas completas (prueba), vector"
vector 23  BasicTopology.peer[11].bitTorrentApp.bitTorrentClient  DownloadComplete_Test:vector  ETV
attr source  BitTorrentClient_DownloadComplete_Test
attr title  "Descargas completas (prueba), vector"
vector 25  BasicTopology.peer[12].bitTorrentApp.bitTorrentClient  DownloadComplete_Test:vector  ETV
attr source  BitTorrentClient_DownloadComplete_Test
attr title  "Descargas completas (prueba), vector"
vector 27  BasicTopology.peer[13].bitTorrentApp.bitTorrentClient  DownloadComplete_Test:vector  ETV
attr source  BitTorrentClient_DownloadComplete_Test
attr title  "Descargas completas (prueba), vector"
vector 29  BasicTopology.peer[14].bitTorrentApp.bitTorrentClient  DownloadComplete_Test:vector  ETV
attr source  BitTorrentClient_DownloadComplete_Test
attr title  "Descargas completas (prueba), vector"
vector 31  BasicTopology.peer[15].bitTorrentApp.bitTorrentClient  DownloadComplete_Test:vector  ETV
attr source  BitTorrentClient_DownloadComplete_Test
attr title  "Descargas completas (prueba), vector"
vector 33  BasicTopology.peer[16].bitTorrentApp.bitTorrentClient  DownloadComplete_Test:vector  ETV
attr source  BitTorrentClient_DownloadComplete_Test
attr title  "Descargas completas (prueba), vector"
vector 35  BasicTopology.peer[17].bitTorrentApp.bitTorrentClient  DownloadComplete_Test:vector  ETV
attr source  BitTorrentClient_DownloadComplete_Test
attr title  "Descargas completas (prueba), vector"
vector 37  BasicTopology.peer[18].bitTorrentApp.bitTorrentClient  DownloadComplete_Test:vector  ETV
attr source  BitTorrentClient_DownloadComplete_Test
attr title  "Descargas completas (prueba), vector"
vector 39  BasicTopology.peer[19].bitTorrentApp.bitTorrentClient  DownloadComplete_Test:vector  ETV
attr source  BitTorrentClient_DownloadComplete_Test
attr title  "Descargas completas (prueba), vector"
vector 41  BasicTopology.peer[20].bitTorrentApp.bitTorrentClient  DownloadComplete_Test:vector  ETV
attr source  BitTorrentClient_DownloadComplete_Test
attr title  "Descargas completas (prueba), vector"
vector 43  BasicTopology.peer[21].bitTorrentApp.bitTorrentClient  DownloadComplete_Test:vector  ETV
attr source  BitTorrentClient_DownloadComplete_Test
attr title  "Descargas completas (prueba), vector"
vector 45  BasicTopology.peer[22].bitTorrentApp.bitTorrentClient  DownloadComplete_Test:vector  ETV
attr source  BitTorrentClient_DownloadComplete_Test
attr title  "Descargas completas (prueba), vector"
vector 47  BasicTopology.peer[23].bitTorrentApp.bitTorrentClient  DownloadComplete_Test:vector  ETV
attr source  BitTorrentClient_DownloadComplete_Test
attr title  "Descargas completas (prueba), vector"
vector 49  BasicTopology.peer[24].bitTorrentApp.bitTorrentClient  DownloadComplete_Test:vector  ETV
attr source  BitTorrentClient_DownloadComplete_Test
attr title  "Descargas completas (prueba), vector"
vector 833  BasicTopology.peer[0].bitTorrentApp.bitTorrentClient.contentManager_26  TotalBytesUploaded:vector  ETV
attr source  ContentManager_TotalBytesUploaded
attr title  "Total of Bytes Uploaded, vector"
attr unit  B
vector 912  BasicTopology.peer[10].bitTorrentApp.bitTorrentClient.contentManager_26  TotalBytesDownloaded:vector  ETV
attr source  ContentManager_TotalBytesDownloaded
attr title  "Total of Bytes Downloaded, vector"
attr unit  B
vector 992  BasicTopology.peer[20].bitTorrentApp.bitTorrentClient.contentManager_26  TotalBytesDownloaded:vector  ETV
attr source  ContentManager_TotalBytesDownloaded
attr title  "Total of Bytes Downloaded, vector"
attr unit  B
vector 920  BasicTopology.peer[11].bitTorrentApp.bitTorrentClient.contentManager_26  TotalBytesDownloaded:vector  ETV
attr source  ContentManager_TotalBytesDownloaded
attr title  "Total of Bytes Downloaded, vector"
attr unit  B
vector 936  BasicTopology.peer[13].bitTorrentApp.bitTorrentClient.contentManager_26  TotalBytesDownloaded:vector  ETV
attr source  ContentManager_TotalBytesDownloaded
attr title  "Total of Bytes Downloaded, vector"
attr unit  B
vector 911  BasicTopology.peer[10].bitTorrentApp.bitTorrentClient.contentManager_26  PiecesDownloaded:vector  ETV
attr source  ContentManager_PieceDownloaded
attr title  "Pieces Downloaded, vector"
vector 913  BasicTopology.peer[10].bitTorrentApp.bitTorrentClient.contentManager_26  TotalBytesUploaded:vector  ETV
attr source  ContentManager_TotalBytesUploaded
attr title  "Total of Bytes Uploaded, vector"
attr unit  B
vector 919  BasicTopology.peer[11].bitTorrentApp.bitTorrentClient.contentManager_26  PiecesDownloaded:vector  ETV
attr source  ContentManager_PieceDownloaded
attr title  "Pieces Downloaded, vector"
vector 921  BasicTopology.peer[11].bitTorrentApp.bitTorrentClient.contentManager_26  TotalBytesUploaded:vector  ETV
attr source  ContentManager_TotalBytesUploaded
attr title  "Total of Bytes Uploaded, vector"
attr unit  B
vector 991  BasicTopology.peer[20].bitTorrentApp.bitTorrentClient.contentManager_26  PiecesDownloaded:vector  ETV
attr source  ContentManager_PieceDownloaded
attr title  "Pieces Downloaded, vector"
vector 1008  BasicTopology.peer[22].bitTorrentApp.bitTorrentClient.contentManager_26  TotalBytesDownloaded:vector  ETV
attr source  ContentManager_TotalBytesDownloaded
attr title  "Total of Bytes Downloaded, vector"
attr unit  B
vector 993  BasicTopology.peer[20].bitTorrentApp.bitTorrentClient.contentManager_26  TotalBytesUploaded:vector  ETV
attr source  ContentManager_TotalBytesUploaded
attr title  "Total of Bytes Uploaded, vector"
attr unit  B
vector 856  BasicTopology.peer[3].bitTorrentApp.bitTorrentClient.contentManager_26  TotalBytesDownloaded:vector  ETV
attr source  ContentManager_TotalBytesDownloaded
attr title  "Total of Bytes Downloaded, vector"
attr unit  B
vector 880  BasicTopology.peer[6].bitTorrentApp.bitTorrentClient.contentManager_26  TotalBytesDownloaded:vector  ETV
attr source  ContentManager_TotalBytesDownloaded
attr title  "Total of Bytes Downloaded, vector"
attr unit  B
vector 928  BasicTopology.peer[12].bitTorrentApp.bitTorrentClient.contentManager_26  TotalBytesDownloaded:vector  ETV
attr source  ContentManager_TotalBytesDownloaded
attr title  "Total of Bytes Downloaded, vector"
attr unit  B
vector 896  BasicTopology.peer[8].bitTorrentApp.bitTorrentClient.contentManager_26  TotalBytesDownloaded:vector  ETV
attr source  ContentManager_TotalBytesDownloaded
attr title  "Total of Bytes Downloaded, vector"
attr unit  B
vector 872  BasicTopology.peer[5].bitTorrentApp.bitTorrentClient.contentManager_26  TotalBytesDownloaded:vector  ETV
attr source  ContentManager_TotalBytesDownloaded
attr title  "Total of Bytes Downloaded, vector"
attr unit  B
vector 935  BasicTopology.peer[13].bitTorrentApp.bitTorrentClient.contentManager_26  PiecesDownloaded:vector  ETV
attr source  ContentManager_PieceDownloaded
attr title  "Pieces Downloaded, vector"
vector 937  BasicTopology.peer[13].bitTorrentApp.bitTorrentClient.contentManager_26  TotalBytesUploaded:vector  ETV
attr source  ContentManager_TotalBytesUploaded
attr title  "Total of Bytes Uploaded, vector"
attr unit  B
vector 855  BasicTopology.peer[3].bitTorrentApp.bitTorrentClient.contentManager_26  PiecesDownloaded:vector  ETV
attr source  ContentManager_PieceDownloaded
attr title  "Pieces Downloaded, vector"
vector 857  BasicTopology.peer[3].bitTorrentApp.bitTorrentClient.contentManager_26  TotalBytesUploaded:vector  ETV
attr source  ContentManager_TotalBytesUploaded
attr title  "Total of Bytes Uploaded, vector"
attr unit  B
vector 1000  BasicTopology.peer[21].bitTorrentApp.bitTorrentClient.contentManager_26  TotalBytesDownloaded:vector  ETV
attr source  ContentManager_TotalBytesDownloaded
attr title  "Total of Bytes Downloaded, vector"
attr unit  B
vector 1016  BasicTopology.peer[23].bitTorrentApp.bitTorrentClient.contentManager_26  TotalBytesDownloaded:vector  ETV
attr source  ContentManager_TotalBytesDownloaded
attr title  "Total of Bytes Downloaded, vector"
attr unit  B
vector 848  BasicTopology.peer[2].bitTorrentApp.bitTorrentClient.contentManager_26  TotalBytesDownloaded:vector  ETV
attr source  ContentManager_TotalBytesDownloaded
attr title  "Total of Bytes Downloaded, vector"
attr unit  B
vector 840  BasicTopology.peer[1].bitTorrentApp.bitTorrentClient.contentManager_26  TotalBytesDownloaded:vector  ETV
attr source  ContentManager_TotalBytesDownloaded
attr title  "Total of Bytes Downloaded, vector"
attr unit  B
vector 864  BasicTopology.peer[4].bitTorrentApp.bitTorrentClient.contentManager_26  TotalBytesDownloaded:vector  ETV
attr source  ContentManager_TotalBytesDownloaded
attr title  "Total of Bytes Downloaded, vector"
attr unit  B
vector 1024  BasicTopology.peer[24].bitTorrentApp.bitTorrentClient.contentManager_26  TotalBytesDownloaded:vector  ETV
attr source  ContentManager_TotalBytesDownloaded
attr title  "Total of Bytes Downloaded, vector"
attr unit  B
vector 888  BasicTopology.peer[7].bitTorrentApp.bitTorrentClient.contentManager_26  TotalBytesDownloaded:vector  ETV
attr source  ContentManager_TotalBytesDownloaded
attr title  "Total of Bytes Downloaded, vector"
attr unit  B
vector 944  BasicTopology.peer[14].bitTorrentApp.bitTorrentClient.contentManager_26  TotalBytesDownloaded:vector  ETV
attr source  ContentManager_TotalBytesDownloaded
attr title  "Total of Bytes Downloaded, vector"
attr unit  B
vector 952  BasicTopology.peer[15].bitTorrentApp.bitTorrentClient.contentManager_26  TotalBytesDownloaded:vector  ETV
attr source  ContentManager_TotalBytesDownloaded
attr title  "Total of Bytes Downloaded, vector"
attr unit  B
vector 871  BasicTopology.peer[5].bitTorrentApp.bitTorrentClient.contentManager_26  PiecesDownloaded:vector  ETV
attr source  ContentManager_PieceDownloaded
attr title  "Pieces Downloaded, vector"
vector 999  BasicTopology.peer[21].bitTorrentApp.bitTorrentClient.contentManager_26  PiecesDownloaded:vector  ETV
attr source  ContentManager_PieceDownloaded
attr title  "Pieces Downloaded, vector"
vector 873  BasicTopology.peer[5].bitTorrentApp.bitTorrentClient.contentManager_26  TotalBytesUploaded:vector  ETV
attr source  ContentManager_TotalBytesUploaded
attr title  "Total of Bytes Uploaded, vector"
attr unit  B
vector 943  BasicTopology.peer[14].bitTorrentApp.bitTorrentClient.contentManager_26  PiecesDownloaded:vector  ETV
attr source  ContentManager_PieceDownloaded
attr title  "Pieces Downloaded, vector"
vector 945  BasicTopology.peer[14].bitTorrentApp.bitTorrentClient.contentManager_26  TotalBytesUploaded:vector  ETV
attr source  ContentManager_TotalBytesUploaded
attr title  "Total of Bytes Uploaded, vector"
attr unit  B
vector 1007  BasicTopology.peer[22].bitTorrentApp.bitTorrentClient.contentManager_26  PiecesDownloaded:vector  ETV
attr source  ContentManager_PieceDownloaded
attr title  "Pieces Downloaded, vector"
vector 1009  BasicTopology.peer[22].bitTorrentApp.bitTorrentClient.contentManager_26  TotalBytesUploaded:vector  ETV
attr source  ContentManager_TotalBytesUploaded
attr title  "Total of Bytes Uploaded, vector"
attr unit  B
vector 847  BasicTopology.peer[2].bitTorrentApp.bitTorrentClient.contentManager_26  PiecesDownloaded:vector  ETV
attr source  ContentManager_PieceDownloaded
attr title  "Pieces Downloaded, vector"
vector 849  BasicTopology.peer[2].bitTorrentApp.bitTorrentClient.contentManager_26  TotalBytesUploaded:vector  ETV
attr source  ContentManager_TotalBytesUploaded
attr title  "Total of Bytes Uploaded, vector"
attr unit  B
vector 904  BasicTopology.peer[9].bitTorrentApp.bitTorrentClient.contentManager_26  TotalBytesDownloaded:vector  ETV
attr source  ContentManager_TotalBytesDownloaded
attr title  "Total of Bytes Downloaded, vector"
attr unit  B
vector 1023  BasicTopology.peer[24].bitTorrentApp.bitTorrentClient.contentManager_26  PiecesDownloaded:vector  ETV
attr source  ContentManager_PieceDownloaded
attr title  "Pieces Downloaded, vector"
vector 960  BasicTopology.peer[16].bitTorrentApp.bitTorrentClient.contentManager_26  TotalBytesDownloaded:vector  ETV
attr source  ContentManager_TotalBytesDownloaded
attr title  "Total of Bytes Downloaded, vector"
attr unit  B
vector 887  BasicTopology.peer[7].bitTorrentApp.bitTorrentClient.contentManager_26  PiecesDownloaded:vector  ETV
attr source  ContentManager_PieceDownloaded
attr title  "Pieces Downloaded, vector"
vector 889  BasicTopology.peer[7].bitTorrentApp.bitTorrentClient.contentManager_26  TotalBytesUploaded:vector  ETV
attr source  ContentManager_TotalBytesUploaded
attr title  "Total of Bytes Uploaded, vector"
attr unit  B
vector 968  BasicTopology.peer[17].bitTorrentApp.bitTorrentClient.contentManager_26  TotalBytesDownloaded:vector  ETV
attr source  ContentManager_TotalBytesDownloaded
attr title  "Total of Bytes Downloaded, vector"
attr unit  B
vector 863  BasicTopology.peer[4].bitTorrentApp.bitTorrentClient.contentManager_26  PiecesDownloaded:vector  ETV
attr source  ContentManager_PieceDownloaded
attr title  "Pieces Downloaded, vector"
vector 865  BasicTopology.peer[4].bitTorrentApp.bitTorrentClient.contentManager_26  TotalBytesUploaded:vector  ETV
attr source  ContentManager_TotalBytesUploaded
attr title  "Total of Bytes Uploaded, vector"
attr unit  B
vector 984  BasicTopology.peer[19].bitTorrentApp.bitTorrentClient.contentManager_26  TotalBytesDownloaded:vector  ETV
attr source  ContentManager_TotalBytesDownloaded
attr title  "Total of Bytes Downloaded, vector"
attr unit  B
vector 1025  BasicTopology.peer[24].bitTorrentApp.bitTorrentClient.contentManager_26  TotalBytesUploaded:vector  ETV
attr source  ContentManager_TotalBytesUploaded
attr title  "Total of Bytes Uploaded, vector"
attr unit  B
vector 1015  BasicTopology.peer[23].bitTorrentApp.bitTorrentClient.contentManager_26  PiecesDownloaded:vector  ETV
attr source  ContentManager_PieceDownloaded
attr title  "Pieces Downloaded, vector"
vector 967  BasicTopology.peer[17].bitTorrentApp.bitTorrentClient.contentManager_26  PiecesDownloaded:vector  ETV
attr source  ContentManager_PieceDownloaded
attr title  "Pieces Downloaded, vector"
vector 969  BasicTopology.peer[17].bitTorrentApp.bitTorrentClient.contentManager_26  TotalBytesUploaded:vector  ETV
attr source  ContentManager_TotalBytesUploaded
attr title  "Total of Bytes Uploaded, vector"
attr unit  B
vector 903  BasicTopology.peer[9].bitTorrentApp.bitTorrentClient.contentManager_26  PiecesDownloaded:vector  ETV
attr source  ContentManager_PieceDownloaded
attr title  "Pieces Downloaded, vector"
vector 905  BasicTopology.peer[9].bitTorrentApp.bitTorrentClient.contentManager_26  TotalBytesUploaded:vector  ETV
attr source  ContentManager_TotalBytesUploaded
attr title  "Total of Bytes Uploaded, vector"
attr unit  B
vector 976  BasicTopology.peer[18].bitTorrentApp.bitTorrentClient.contentManager_26  TotalBytesDownloaded:vector  ETV
attr source  ContentManager_TotalBytesDownloaded
attr title  "Total of Bytes Downloaded, vector"
attr unit  B
vector 839  BasicTopology.peer[1].bitTorrentApp.bitTorrentClient.contentManager_26  PiecesDownloaded:vector  ETV
attr source  ContentManager_PieceDownloaded
attr title  "Pieces Downloaded, vector"
vector 1001  BasicTopology.peer[21].bitTorrentApp.bitTorrentClient.contentManager_26  TotalBytesUploaded:vector  ETV
attr source  ContentManager_TotalBytesUploaded
attr title  "Total of Bytes Uploaded, vector"
attr unit  B
vector 959  BasicTopology.peer[16].bitTorrentApp.bitTorrentClient.contentManager_26  PiecesDownloaded:vector  ETV
attr source  ContentManager_PieceDownloaded
attr title  "Pieces Downloaded, vector"
vector 975  BasicTopology.peer[18].bitTorrentApp.bitTorrentClient.contentManager_26  PiecesDownloaded:vector  ETV
attr source  ContentManager_PieceDownloaded
attr title  "Pieces Downloaded, vector"
vector 951  BasicTopology.peer[15].bitTorrentApp.bitTorrentClient.contentManager_26  PiecesDownloaded:vector  ETV
attr source  ContentManager_PieceDownloaded
attr title  "Pieces Downloaded, vector"
vector 927  BasicTopology.peer[12].bitTorrentApp.bitTorrentClient.contentManager_26  PiecesDownloaded:vector  ETV
attr source  ContentManager_PieceDownloaded
attr title  "Pieces Downloaded, vector"
vector 841  BasicTopology.peer[1].bitTorrentApp.bitTorrentClient.contentManager_26  TotalBytesUploaded:vector  ETV
attr source  ContentManager_TotalBytesUploaded
attr title  "Total of Bytes Uploaded, vector"
attr unit  B
vector 879  BasicTopology.peer[6].bitTorrentApp.bitTorrentClient.contentManager_26  PiecesDownloaded:vector  ETV
attr source  ContentManager_PieceDownloaded
attr title  "Pieces Downloaded, vector"
vector 983  BasicTopology.peer[19].bitTorrentApp.bitTorrentClient.contentManager_26  PiecesDownloaded:vector  ETV
attr source  ContentManager_PieceDownloaded
attr title  "Pieces Downloaded, vector"
vector 1017  BasicTopology.peer[23].bitTorrentApp.bitTorrentClient.contentManager_26  TotalBytesUploaded:vector  ETV
attr source  ContentManager_TotalBytesUploaded
attr title  "Total of Bytes Uploaded, vector"
attr unit  B
vector 929  BasicTopology.peer[12].bitTorrentApp.bitTorrentClient.contentManager_26  TotalBytesUploaded:vector  ETV
attr source  ContentManager_TotalBytesUploaded
attr title  "Total of Bytes Uploaded, vector"
attr unit  B
vector 895  BasicTopology.peer[8].bitTorrentApp.bitTorrentClient.contentManager_26  PiecesDownloaded:vector  ETV
attr source  ContentManager_PieceDownloaded
attr title  "Pieces Downloaded, vector"
vector 881  BasicTopology.peer[6].bitTorrentApp.bitTorrentClient.contentManager_26  TotalBytesUploaded:vector  ETV
attr source  ContentManager_TotalBytesUploaded
attr title  "Total of Bytes Uploaded, vector"
attr unit  B
vector 953  BasicTopology.peer[15].bitTorrentApp.bitTorrentClient.contentManager_26  TotalBytesUploaded:vector  ETV
attr source  ContentManager_TotalBytesUploaded
attr title  "Total of Bytes Uploaded, vector"
attr unit  B
vector 897  BasicTopology.peer[8].bitTorrentApp.bitTorrentClient.contentManager_26  TotalBytesUploaded:vector  ETV
attr source  ContentManager_TotalBytesUploaded
attr title  "Total of Bytes Uploaded, vector"
attr unit  B
vector 961  BasicTopology.peer[16].bitTorrentApp.bitTorrentClient.contentManager_26  TotalBytesUploaded:vector  ETV
attr source  ContentManager_TotalBytesUploaded
attr title  "Total of Bytes Uploaded, vector"
attr unit  B
3	85	36001	36001
3	56235069	36102.965278019835	36102.96527802
5	86	36001	36001
5	31037010	36055.827775603355	36055.827775603
7	87	36001	36001
7	51702944	36093.158246901715	36093.158246902
9	88	36001	36001
9	65100476	36122.883787818372	36122.883787818
11	89	36001	36001
11	71529613	36137.641998201345	36137.641998201
13	90	36001	36001
13	68840936	36131.379640017206	36131.379640017
15	91	36001	36001
15	73477186	36143.500607439318	36143.500607439
17	92	36001	36001
17	72799727	36141.072150577874	36141.072150578
19	93	36001	36001
19	64224993	36120.384373139209	36120.384373139
21	94	36001	36001
21	25134879	36046.15950808002	36046.15950808
23	95	36001	36001
23	73977646	36148.456549223144	36148.456549223
25	96	36001	36001
25	66163967	36125.251258905744	36125.251258906
27	97	36001	36001
27	68035893	36129.336708711866	36129.336708712
29	98	36001	36001
29	61105402	36113.280240349958	36113.28024035
31	99	36001	36001
31	75003525	36159.698398552577	36159.698398553
33	100	36001	36001
33	69182713	36132.064320244783	36132.064320245
35	101	36001	36001
35	67101994	36127.416108639833	36127.41610864
37	102	36001	36001
37	71405611	36137.380780215113	36137.380780215
39	103	36001	36001
39	72374576	36139.728608347227	36139.728608347
41	104	36001	36001
41	32872435	36058.882423241742	36058.882423242
43	105	36001	36001
43	49486907	36088.457956648386	36088.457956648
45	106	36001	36001
45	38581514	36067.811001166747	36067.811001167
47	107	36001	36001
47	49189503	36087.794833591249	36087.794833591
49	108	36001	36001
49	72854114	36141.434077534309	36141.434077534
833	111693	36001.079588189454	32768
833	133298	36001.099704743557	65536
833	133533	36001.100308614065	98304
833	134985	36001.10449115456	131072
833	136302	36001.113538933109	163840
833	136314	36001.119596395233	196608
833	136316	36001.119911164178	229376
833	157456	36001.137535383921	262144
833	158017	36001.13813764182	294912
833	172670	36001.152824721416	327680
833	185605	36001.171351010519	360448
833	197622	36001.190000971424	393216
833	197728	36001.190379482696	425984
833	199365	36001.196852371671	458752
833	202245	36001.215049049968	491520
833	202273	36001.22199364432	524288
833	202275	36001.236497508083	557056
833	202277	36001.239990126653	589824
833	202279	36001.240263600768	622592
833	202777	36001.245122388503	655360
833	369052	36002.054046877557	688128
833	376240	36002.077215310137	720896
833	376356	36002.078748398657	753664
833	384093	36002.102449145144	786432
833	386813	36002.115310200304	819200
833	391616	36002.133792027747	851968
833	392079	36002.134613930393	884736
833	398008	36002.153045184812	917504
833	401803	36002.177208707701	950272
833	401805	36002.187257247921	983040
833	405073	36002.311809467576	1015808
833	414103	36002.347035677591	1048576
833	517645	36002.618835528702	1081344
833	517785	36002.619075083704	1114112
833	520670	36002.629989315399	1146880
833	525178	36002.639921990994	1179648
833	528488	36002.643686793569	1212416
833	529224	36002.645042942779	1245184
833	529704	36002.64565773738	1277952
833	533881	36002.649618050189	1310720
833	572388	36002.700048447001	1343488
833	575871	36002.708399790543	1376256
833	581556	36002.720959424507	1409024
833	588128	36002.741608678562	1441792
833	641884	36003.365841840916	1474560
833	646483	36003.378561401238	1507328
833	657094	36003.411693358058	1540096
833	669321	36003.710514618449	1572864
833	682953	36003.770606765842	1605632
833	696205	36003.844465587584	1638400
833	707438	36003.880088517718	1671168
833	732988	36003.964129386898	1703936
833	832446	36004.071207374807	1736704
833	923129	36004.229952854368	1769472
833	935621	36004.270637501782	1802240
833	957652	36004.451975411661	1835008
833	967479	36004.481059988404	1867776
833	969410	36004.485665079283	1900544
833	1007558	36004.52990352549	1933312
833	1043767	36004.572198263183	1966080
833	1066049	36004.628882716492	1998848
833	1086987	36004.672655830705	2031616
833	1094269	36004.696233759344	2064384
833	1152410	36004.827051869465	2097152
833	1171235	36004.903058234351	2129920
833	1185373	36004.962157065932	2162688
833	1286646	36005.369292017323	2195456
833	1317441	36005.45750740347	2228224
833	1366688	36005.589635731012	2260992
833	1424238	36005.717323694028	2293760
833	1424515	36005.718264134003	2326528
833	1442285	36006.011164457299	2359296
833	1482867	36006.120816251329	2392064
833	1542166	36006.548205914387	2424832
833	1563090	36006.616005282873	2457600
833	1605781	36006.747766117695	2490368
833	1614730	36006.771896849977	2523136
833	1631505	36006.817453386153	2555904
833	1646052	36006.85828706675	2588672
833	1663241	36006.903888354342	2621440
833	1770989	36007.172884594045	2654208
833	1801633	36007.275776296603	2686976
833	2554476	36008.861732352639	2719744
833	2579801	36008.941270798474	2752512
833	2616209	36009.05270461167	2785280
833	2662065	36009.165416869402	2818048
833	2764564	36009.383224140232	2850816
833	2809606	36009.450044949914	2883584
833	3064640	36009.912247914386	2916352
833	3210951	36010.093876445128	2949120
833	3211296	36010.094194110027	2981888
833	3294414	36010.302002560235	3014656
833	3325704	36010.401820781677	3047424
833	3361163	36010.500708363641	3080192
833	3911128	36011.672587077615	3112960
833	4001522	36011.867300731331	3145728
833	4767470	36013.177051256136	3178496
833	4776331	36013.19269783529	3211264
833	4782273	36013.20148471196	3244032
833	4800845	36013.226111026875	3276800
833	5399147	36014.254199400277	3309568
833	5399566	36014.255027065302	3342336
833	5400259	36014.25604921491	3375104
833	5427011	36014.293241000353	3407872
833	5468088	36014.357935566625	3440640
833	5569762	36014.636795206863	3473408
833	5649078	36014.765308425441	3506176
833	5750427	36014.916049832472	3538944
833	7022401	36017.037551432986	3571712
833	7023124	36017.038540185532	3604480
833	7029634	36017.047768934118	3637248
833	7100533	36017.182469346672	3670016
833	7268568	36017.456440500431	3702784
833	7274399	36017.463163822349	3735552
833	7293656	36017.490803134331	3768320
833	7761946	36018.313988453907	3801088
833	7843906	36018.440175345546	3833856
833	7913790	36018.553085112472	3866624
833	7933480	36018.583357758858	3899392
833	7941776	36018.597222200074	3932160
833	8313664	36019.203946845894	3964928
833	8609021	36019.578347194902	3997696
833	8662621	36019.654885949558	4030464
833	8680644	36019.683057389446	4063232
833	9047328	36020.323104628683	4096000
833	9142812	36020.440620438693	4128768
833	9987224	36021.640811155343	4161536
833	10166225	36021.87147751615	4194304
833	10740933	36022.739025158897	4227072
833	10769588	36022.780566941065	4259840
833	10795606	36022.81545062516	4292608
833	10845744	36022.879331222167	4325376
833	10908862	36022.965034780519	4358144
833	10964362	36023.037138495378	4390912
833	11580725	36024.138691855866	4423680
833	11640855	36024.215163954871	4456448
833	12031733	36024.96307391741	4489216
833	12041014	36024.974715147068	4521984
833	12086269	36025.032369358726	4554752
833	12106357	36025.05408249856	4587520
833	12292476	36025.312320878455	4620288
833	13827454	36028.068029990338	4653056
833	13848390	36028.0976192403	4685824
833	14335512	36028.856522373023	4718592
833	14458147	36029.069690930424	4751360
833	14493303	36029.134472274425	4784128
833	14520967	36029.179512377646	4816896
833	14549246	36029.23192200954	4849664
833	15365232	36030.515900683582	4882432
833	15793017	36031.121099971624	4915200
833	15793514	36031.121761239864	4947968
833	15808845	36031.14306579314	4980736
833	15809033	36031.143434560472	5013504
833	15825945	36031.165418360743	5046272
833	15826319	36031.165851187282	5079040
833	15836345	36031.179738859284	5111808
833	15843242	36031.190014045785	5144576
833	15843292	36031.190128529382	5177344
833	15843504	36031.190506321449	5210112
833	16043855	36031.616008000969	5242880
833	16575547	36032.701391756222	5275648
833	16620040	36032.762805934964	5308416
833	16652465	36032.809015387536	5341184
833	16711317	36032.891957765653	5373952
833	18717849	36036.045363937326	5406720
833	18800463	36036.153356893061	5439488
833	19504934	36037.245719398101	5472256
833	19513684	36037.25488506585	5505024
833	19521525	36037.263512955731	5537792
833	19554433	36037.302205999283	5570560
833	19588161	36037.342907792437	5603328
833	19649327	36037.413830644124	5636096
833	19671141	36037.439681370768	5668864
833	19678191	36037.448022691574	5701632
833	19708224	36037.485696203002	5734400
833	19726026	36037.510554458332	5767168
833	19740278	36037.534686720516	5799936
833	20348739	36038.562865310926	5832704
833	22124235	36041.230174039729	5865472
833	22369044	36041.622082151468	5898240
833	22932619	36042.663074934115	5931008
833	22949624	36042.687422685791	5963776
833	22975878	36042.724032024749	5996544
833	25077862	36046.083463219965	6029312
833	25088656	36046.095659540783	6062080
833	25089686	36046.097185329023	6094848
833	25092608	36046.101037388147	6127616
833	25092882	36046.101323984005	6160384
833	25093307	36046.101696420137	6193152
833	25093704	36046.102108670235	6225920
833	25096916	36046.10568134616	6258688
833	25097035	36046.105762219077	6291456
833	25097069	36046.105821605676	6324224
833	25845806	36047.381052445554	6356992
833	25893321	36047.472720236188	6389760
833	25936289	36047.538395491686	6422528
833	25980672	36047.609184193822	6455296
833	26023715	36047.682560677576	6488064
833	26060012	36047.74564885211	6520832
833	26209345	36047.94865860085	6553600
833	26755064	36048.842889360752	6586368
833	26805880	36048.915639700436	6619136