version 2
run Test-10-20200425-12:21:58-9353
attr configname Test
attr datetime 20200425-12:21:58
attr experiment "\"Simulation Test\""
attr inifile BasicConfig.ini
attr iterationvars ""
attr iterationvars2 $repetition=10
attr measurement "\"Peers: $peers, Rate: $rate\""
attr network BasicTopology
attr processid 9353
attr repetition 10
attr replication #10
attr resultdir results
attr runnumber 10
attr seedset 10

vector 3  BasicTopology.peer[1].bitTorrentApp.bitTorrentClient  DownloadComplete_Test:vector  ETV
attr source  BitTorrentClient_DownloadComplete_Test
attr title  "Descargas completas (prueba), vector"
vector 5  BasicTopology.peer[2].bitTorrentApp.bitTorrentClient  DownloadComplete_Test:vector  ETV
attr source  BitTorrentClient_DownloadComplete_Test
attr title  "Descargas completas (prueba), vector"
vector 7  BasicTopology.peer[3].bitTorrentApp.bitTorrentClient  DownloadComplete_Test:vector  ETV
attr source  BitTorrentClient_DownloadComplete_Test
attr title  "Descargas completas (prueba), vector"
vector 9  BasicTopology.peer[4].bitTorrentApp.bitTorrentClient  DownloadComplete_Test:vector  ETV
attr source  BitTorrentClient_DownloadComplete_Test
attr title  "Descargas completas (prueba), vector"
vector 11  BasicTopology.peer[5].bitTorrentApp.bitTorrentClient  DownloadComplete_Test:vector  ETV
attr source  BitTorrentClient_DownloadComplete_Test
attr title  "Descargas completas (prueba), vector"
vector 13  BasicTopology.peer[6].bitTorrentApp.bitTorrentClient  DownloadComplete_Test:vector  ETV
attr source  BitTorrentClient_DownloadComplete_Test
attr title  "Descargas completas (prueba), vector"
vector 15  BasicTopology.peer[7].bitTorrentApp.bitTorrentClient  DownloadComplete_Test:vector  ETV
attr source  BitTorrentClient_DownloadComplete_Test
attr title  "Descargas completas (prueba), vector"
vector 17  BasicTopology.peer[8].bitTorrentApp.bitTorrentClient  DownloadComplete_Test:vector  ETV
attr source  BitTorrentClient_DownloadComplete_Test
attr title  "Descargas completas (prueba), vector"
vector 19  BasicTopology.peer[9].bitTorrentApp.bitTorrentClient  DownloadComplete_Test:vector  ETV
attr source  BitTorrentClient_DownloadComplete_Test
attr title  "Descargas completas (prueba), vector"
vector 21  BasicTopology.peer[10].bitTorrentApp.bitTorrentClient  DownloadComplete_Test:vector  ETV
attr source  BitTorrentClient_DownloadComplete_Test
attr title  "Descargas completas (prueba), vector"
vector 23  BasicTopology.peer[11].bitTorrentApp.bitTorrentClient  DownloadComplete_Test:vector  ETV
attr source  BitTorrentClient_DownloadComplete_Test
attr title  "Descargas completas (prueba), vector"
vector 25  BasicTopology.peer[12].bitTorrentApp.bitTorrentClient  DownloadComplete_Test:vector  ETV
attr source  BitTorrentClient_DownloadComplete_Test
attr title  "Descargas completas (prueba), vector"
vector 27  BasicTopology.peer[13].bitTorrentApp.bitTorrentClient  DownloadComplete_Test:vector  ETV
attr source  BitTorrentClient_DownloadComplete_Test
attr title  "Descargas completas (prueba), vector"
vector 29  BasicTopology.peer[14].bitTorrentApp.bitTorrentClient  DownloadComplete_Test:vector  ETV
attr source  BitTorrentClient_DownloadComplete_Test
attr title  "Descargas completas (prueba), vector"
vector 31  BasicTopology.peer[15].bitTorrentApp.bitTorrentClient  DownloadComplete_Test:vector  ETV
attr source  BitTorrentClient_DownloadComplete_Test
attr title  "Descargas completas (prueba), vector"
vector 33  BasicTopology.peer[16].bitTorrentApp.bitTorrentClient  DownloadComplete_Test:vector  ETV
attr source  BitTorrentClient_DownloadComplete_Test
attr title  "Descargas completas (prueba), vector"
vector 35  BasicTopology.peer[17].bitTorrentApp.bitTorrentClient  DownloadComplete_Test:vector  ETV
attr source  BitTorrentClient_DownloadComplete_Test
attr title  "Descargas completas (prueba), vector"
vector 37  BasicTopology.peer[18].bitTorrentApp.bitTorrentClient  DownloadComplete_Test:vector  ETV
attr source  BitTorrentClient_DownloadComplete_Test
attr title  "Descargas completas (prueba), vector"
vector 39  BasicTopology.peer[19].bitTorrentApp.bitTorrentClient  DownloadComplete_Test:vector  ETV
attr source  BitTorrentClient_DownloadComplete_Test
attr title  "Descargas completas (prueba), vector"
vector 41  BasicTopology.peer[20].bitTorrentApp.bitTorrentClient  DownloadComplete_Test:vector  ETV
attr source  BitTorrentClient_DownloadComplete_Test
attr title  "Descargas completas (prueba), vector"
vector 43  BasicTopology.peer[21].bitTorrentApp.bitTorrentClient  DownloadComplete_Test:vector  ETV
attr source  BitTorrentClient_DownloadComplete_Test
attr title  "Descargas completas (prueba), vector"
vector 45  BasicTopology.peer[22].bitTorrentApp.bitTorrentClient  DownloadComplete_Test:vector  ETV
attr source  BitTorrentClient_DownloadComplete_Test
attr title  "Descargas completas (prueba), vector"
vector 47  BasicTopology.peer[23].bitTorrentApp.bitTorrentClient  DownloadComplete_Test:vector  ETV
attr source  BitTorrentClient_DownloadComplete_Test
attr title  "Descargas completas (prueba), vector"
vector 49  BasicTopology.peer[24].bitTorrentApp.bitTorrentClient  DownloadComplete_Test:vector  ETV
attr source  BitTorrentClient_DownloadComplete_Test
attr title  "Descargas completas (prueba), vector"
vector 833  BasicTopology.peer[0].bitTorrentApp.bitTorrentClient.contentManager_26  TotalBytesUploaded:vector  ETV
attr source  ContentManager_TotalBytesUploaded
attr title  "Total of Bytes Uploaded, vector"
attr unit  B
vector 840  BasicTopology.peer[1].bitTorrentApp.bitTorrentClient.contentManager_26  TotalBytesDownloaded:vector  ETV
attr source  ContentManager_TotalBytesDownloaded
attr title  "Total of Bytes Downloaded, vector"
attr unit  B
vector 839  BasicTopology.peer[1].bitTorrentApp.bitTorrentClient.contentManager_26  PiecesDownloaded:vector  ETV
attr source  ContentManager_PieceDownloaded
attr title  "Pieces Downloaded, vector"
vector 841  BasicTopology.peer[1].bitTorrentApp.bitTorrentClient.contentManager_26  TotalBytesUploaded:vector  ETV
attr source  ContentManager_TotalBytesUploaded
attr title  "Total of Bytes Uploaded, vector"
attr unit  B
vector 920  BasicTopology.peer[11].bitTorrentApp.bitTorrentClient.contentManager_26  TotalBytesDownloaded:vector  ETV
attr source  ContentManager_TotalBytesDownloaded
attr title  "Total of Bytes Downloaded, vector"
attr unit  B
vector 872  BasicTopology.peer[5].bitTorrentApp.bitTorrentClient.contentManager_26  TotalBytesDownloaded:vector  ETV
attr source  ContentManager_TotalBytesDownloaded
attr title  "Total of Bytes Downloaded, vector"
attr unit  B
vector 1008  BasicTopology.peer[22].bitTorrentApp.bitTorrentClient.contentManager_26  TotalBytesDownloaded:vector  ETV
attr source  ContentManager_TotalBytesDownloaded
attr title  "Total of Bytes Downloaded, vector"
attr unit  B
vector 928  BasicTopology.peer[12].bitTorrentApp.bitTorrentClient.contentManager_26  TotalBytesDownloaded:vector  ETV
attr source  ContentManager_TotalBytesDownloaded
attr title  "Total of Bytes Downloaded, vector"
attr unit  B
vector 864  BasicTopology.peer[4].bitTorrentApp.bitTorrentClient.contentManager_26  TotalBytesDownloaded:vector  ETV
attr source  ContentManager_TotalBytesDownloaded
attr title  "Total of Bytes Downloaded, vector"
attr unit  B
vector 919  BasicTopology.peer[11].bitTorrentApp.bitTorrentClient.contentManager_26  PiecesDownloaded:vector  ETV
attr source  ContentManager_PieceDownloaded
attr title  "Pieces Downloaded, vector"
vector 921  BasicTopology.peer[11].bitTorrentApp.bitTorrentClient.contentManager_26  TotalBytesUploaded:vector  ETV
attr source  ContentManager_TotalBytesUploaded
attr title  "Total of Bytes Uploaded, vector"
attr unit  B
vector 880  BasicTopology.peer[6].bitTorrentApp.bitTorrentClient.contentManager_26  TotalBytesDownloaded:vector  ETV
attr source  ContentManager_TotalBytesDownloaded
attr title  "Total of Bytes Downloaded, vector"
attr unit  B
vector 871  BasicTopology.peer[5].bitTorrentApp.bitTorrentClient.contentManager_26  PiecesDownloaded:vector  ETV
attr source  ContentManager_PieceDownloaded
attr title  "Pieces Downloaded, vector"
vector 873  BasicTopology.peer[5].bitTorrentApp.bitTorrentClient.contentManager_26  TotalBytesUploaded:vector  ETV
attr source  ContentManager_TotalBytesUploaded
attr title  "Total of Bytes Uploaded, vector"
attr unit  B
vector 936  BasicTopology.peer[13].bitTorrentApp.bitTorrentClient.contentManager_26  TotalBytesDownloaded:vector  ETV
attr source  ContentManager_TotalBytesDownloaded
attr title  "Total of Bytes Downloaded, vector"
attr unit  B
vector 912  BasicTopology.peer[10].bitTorrentApp.bitTorrentClient.contentManager_26  TotalBytesDownloaded:vector  ETV
attr source  ContentManager_TotalBytesDownloaded
attr title  "Total of Bytes Downloaded, vector"
attr unit  B
vector 935  BasicTopology.peer[13].bitTorrentApp.bitTorrentClient.contentManager_26  PiecesDownloaded:vector  ETV
attr source  ContentManager_PieceDownloaded
attr title  "Pieces Downloaded, vector"
vector 937  BasicTopology.peer[13].bitTorrentApp.bitTorrentClient.contentManager_26  TotalBytesUploaded:vector  ETV
attr source  ContentManager_TotalBytesUploaded
attr title  "Total of Bytes Uploaded, vector"
attr unit  B
vector 856  BasicTopology.peer[3].bitTorrentApp.bitTorrentClient.contentManager_26  TotalBytesDownloaded:vector  ETV
attr source  ContentManager_TotalBytesDownloaded
attr title  "Total of Bytes Downloaded, vector"
attr unit  B
vector 896  BasicTopology.peer[8].bitTorrentApp.bitTorrentClient.contentManager_26  TotalBytesDownloaded:vector  ETV
attr source  ContentManager_TotalBytesDownloaded
attr title  "Total of Bytes Downloaded, vector"
attr unit  B
vector 1000  BasicTopology.peer[21].bitTorrentApp.bitTorrentClient.contentManager_26  TotalBytesDownloaded:vector  ETV
attr source  ContentManager_TotalBytesDownloaded
attr title  "Total of Bytes Downloaded, vector"
attr unit  B
vector 911  BasicTopology.peer[10].bitTorrentApp.bitTorrentClient.contentManager_26  PiecesDownloaded:vector  ETV
attr source  ContentManager_PieceDownloaded
attr title  "Pieces Downloaded, vector"
vector 913  BasicTopology.peer[10].bitTorrentApp.bitTorrentClient.contentManager_26  TotalBytesUploaded:vector  ETV
attr source  ContentManager_TotalBytesUploaded
attr title  "Total of Bytes Uploaded, vector"
attr unit  B
vector 863  BasicTopology.peer[4].bitTorrentApp.bitTorrentClient.contentManager_26  PiecesDownloaded:vector  ETV
attr source  ContentManager_PieceDownloaded
attr title  "Pieces Downloaded, vector"
vector 865  BasicTopology.peer[4].bitTorrentApp.bitTorrentClient.contentManager_26  TotalBytesUploaded:vector  ETV
attr source  ContentManager_TotalBytesUploaded
attr title  "Total of Bytes Uploaded, vector"
attr unit  B
vector 888  BasicTopology.peer[7].bitTorrentApp.bitTorrentClient.contentManager_26  TotalBytesDownloaded:vector  ETV
attr source  ContentManager_TotalBytesDownloaded
attr title  "Total of Bytes Downloaded, vector"
attr unit  B
vector 895  BasicTopology.peer[8].bitTorrentApp.bitTorrentClient.contentManager_26  PiecesDownloaded:vector  ETV
attr source  ContentManager_PieceDownloaded
attr title  "Pieces Downloaded, vector"
vector 897  BasicTopology.peer[8].bitTorrentApp.bitTorrentClient.contentManager_26  TotalBytesUploaded:vector  ETV
attr source  ContentManager_TotalBytesUploaded
attr title  "Total of Bytes Uploaded, vector"
attr unit  B
vector 904  BasicTopology.peer[9].bitTorrentApp.bitTorrentClient.contentManager_26  TotalBytesDownloaded:vector  ETV
attr source  ContentManager_TotalBytesDownloaded
attr title  "Total of Bytes Downloaded, vector"
attr unit  B
vector 848  BasicTopology.peer[2].bitTorrentApp.bitTorrentClient.contentManager_26  TotalBytesDownloaded:vector  ETV
attr source  ContentManager_TotalBytesDownloaded
attr title  "Total of Bytes Downloaded, vector"
attr unit  B
vector 1007  BasicTopology.peer[22].bitTorrentApp.bitTorrentClient.contentManager_26  PiecesDownloaded:vector  ETV
attr source  ContentManager_PieceDownloaded
attr title  "Pieces Downloaded, vector"
vector 1009  BasicTopology.peer[22].bitTorrentApp.bitTorrentClient.contentManager_26  TotalBytesUploaded:vector  ETV
attr source  ContentManager_TotalBytesUploaded
attr title  "Total of Bytes Uploaded, vector"
attr unit  B
vector 968  BasicTopology.peer[17].bitTorrentApp.bitTorrentClient.contentManager_26  TotalBytesDownloaded:vector  ETV
attr source  ContentManager_TotalBytesDownloaded
attr title  "Total of Bytes Downloaded, vector"
attr unit  B
vector 879  BasicTopology.peer[6].bitTorrentApp.bitTorrentClient.contentManager_26  PiecesDownloaded:vector  ETV
attr source  ContentManager_PieceDownloaded
attr title  "Pieces Downloaded, vector"
vector 881  BasicTopology.peer[6].bitTorrentApp.bitTorrentClient.contentManager_26  TotalBytesUploaded:vector  ETV
attr source  ContentManager_TotalBytesUploaded
attr title  "Total of Bytes Uploaded, vector"
attr unit  B
vector 903  BasicTopology.peer[9].bitTorrentApp.bitTorrentClient.contentManager_26  PiecesDownloaded:vector  ETV
attr source  ContentManager_PieceDownloaded
attr title  "Pieces Downloaded, vector"
vector 905  BasicTopology.peer[9].bitTorrentApp.bitTorrentClient.contentManager_26  TotalBytesUploaded:vector  ETV
attr source  ContentManager_TotalBytesUploaded
attr title  "Total of Bytes Uploaded, vector"
attr unit  B
vector 927  BasicTopology.peer[12].bitTorrentApp.bitTorrentClient.contentManager_26  PiecesDownloaded:vector  ETV
attr source  ContentManager_PieceDownloaded
attr title  "Pieces Downloaded, vector"
vector 1024  BasicTopology.peer[24].bitTorrentApp.bitTorrentClient.contentManager_26  TotalBytesDownloaded:vector  ETV
attr source  ContentManager_TotalBytesDownloaded
attr title  "Total of Bytes Downloaded, vector"
attr unit  B
vector 855  BasicTopology.peer[3].bitTorrentApp.bitTorrentClient.contentManager_26  PiecesDownloaded:vector  ETV
attr source  ContentManager_PieceDownloaded
attr title  "Pieces Downloaded, vector"
vector 984  BasicTopology.peer[19].bitTorrentApp.bitTorrentClient.contentManager_26  TotalBytesDownloaded:vector  ETV
attr source  ContentManager_TotalBytesDownloaded
attr title  "Total of Bytes Downloaded, vector"
attr unit  B
vector 929  BasicTopology.peer[12].bitTorrentApp.bitTorrentClient.contentManager_26  TotalBytesUploaded:vector  ETV
attr source  ContentManager_TotalBytesUploaded
attr title  "Total of Bytes Uploaded, vector"
attr unit  B
vector 1016  BasicTopology.peer[23].bitTorrentApp.bitTorrentClient.contentManager_26  TotalBytesDownloaded:vector  ETV
attr source  ContentManager_TotalBytesDownloaded
attr title  "Total of Bytes Downloaded, vector"
attr unit  B
vector 944  BasicTopology.peer[14].bitTorrentApp.bitTorrentClient.contentManager_26  TotalBytesDownloaded:vector  ETV
attr source  ContentManager_TotalBytesDownloaded
attr title  "Total of Bytes Downloaded, vector"
attr unit  B
vector 999  BasicTopology.peer[21].bitTorrentApp.bitTorrentClient.contentManager_26  PiecesDownloaded:vector  ETV
attr source  ContentManager_PieceDownloaded
attr title  "Pieces Downloaded, vector"
vector 887  BasicTopology.peer[7].bitTorrentApp.bitTorrentClient.contentManager_26  PiecesDownloaded:vector  ETV
attr source  ContentManager_PieceDownloaded
attr title  "Pieces Downloaded, vector"
vector 857  BasicTopology.peer[3].bitTorrentApp.bitTorrentClient.contentManager_26  TotalBytesUploaded:vector  ETV
attr source  ContentManager_TotalBytesUploaded
attr title  "Total of Bytes Uploaded, vector"
attr unit  B
vector 983  BasicTopology.peer[19].bitTorrentApp.bitTorrentClient.contentManager_26  PiecesDownloaded:vector  ETV
attr source  ContentManager_PieceDownloaded
attr title  "Pieces Downloaded, vector"
vector 1023  BasicTopology.peer[24].bitTorrentApp.bitTorrentClient.contentManager_26  PiecesDownloaded:vector  ETV
attr source  ContentManager_PieceDownloaded
attr title  "Pieces Downloaded, vector"
vector 976  BasicTopology.peer[18].bitTorrentApp.bitTorrentClient.contentManager_26  TotalBytesDownloaded:vector  ETV
attr source  ContentManager_TotalBytesDownloaded
attr title  "Total of Bytes Downloaded, vector"
attr unit  B
vector 960  BasicTopology.peer[16].bitTorrentApp.bitTorrentClient.contentManager_26  TotalBytesDownloaded:vector  ETV
attr source  ContentManager_TotalBytesDownloaded
attr title  "Total of Bytes Downloaded, vector"
attr unit  B
vector 992  BasicTopology.peer[20].bitTorrentApp.bitTorrentClient.contentManager_26  TotalBytesDownloaded:vector  ETV
attr source  ContentManager_TotalBytesDownloaded
attr title  "Total of Bytes Downloaded, vector"
attr unit  B
vector 847  BasicTopology.peer[2].bitTorrentApp.bitTorrentClient.contentManager_26  PiecesDownloaded:vector  ETV
attr source  ContentManager_PieceDownloaded
attr title  "Pieces Downloaded, vector"
vector 943  BasicTopology.peer[14].bitTorrentApp.bitTorrentClient.contentManager_26  PiecesDownloaded:vector  ETV
attr source  ContentManager_PieceDownloaded
attr title  "Pieces Downloaded, vector"
vector 849  BasicTopology.peer[2].bitTorrentApp.bitTorrentClient.contentManager_26  TotalBytesUploaded:vector  ETV
attr source  ContentManager_TotalBytesUploaded
attr title  "Total of Bytes Uploaded, vector"
attr unit  B
vector 959  BasicTopology.peer[16].bitTorrentApp.bitTorrentClient.contentManager_26  PiecesDownloaded:vector  ETV
attr source  ContentManager_PieceDownloaded
attr title  "Pieces Downloaded, vector"
vector 952  BasicTopology.peer[15].bitTorrentApp.bitTorrentClient.contentManager_26  TotalBytesDownloaded:vector  ETV
attr source  ContentManager_TotalBytesDownloaded
attr title  "Total of Bytes Downloaded, vector"
attr unit  B
vector 1015  BasicTopology.peer[23].bitTorrentApp.bitTorrentClient.contentManager_26  PiecesDownloaded:vector  ETV
attr source  ContentManager_PieceDownloaded
attr title  "Pieces Downloaded, vector"
vector 1017  BasicTopology.peer[23].bitTorrentApp.bitTorrentClient.contentManager_26  TotalBytesUploaded:vector  ETV
attr source  ContentManager_TotalBytesUploaded
attr title  "Total of Bytes Uploaded, vector"
attr unit  B
vector 1001  BasicTopology.peer[21].bitTorrentApp.bitTorrentClient.contentManager_26  TotalBytesUploaded:vector  ETV
attr source  ContentManager_TotalBytesUploaded
attr title  "Total of Bytes Uploaded, vector"
attr unit  B
vector 991  BasicTopology.peer[20].bitTorrentApp.bitTorrentClient.contentManager_26  PiecesDownloaded:vector  ETV
attr source  ContentManager_PieceDownloaded
attr title  "Pieces Downloaded, vector"
vector 967  BasicTopology.peer[17].bitTorrentApp.bitTorrentClient.contentManager_26  PiecesDownloaded:vector  ETV
attr source  ContentManager_PieceDownloaded
attr title  "Pieces Downloaded, vector"
vector 951  BasicTopology.peer[15].bitTorrentApp.bitTorrentClient.contentManager_26  PiecesDownloaded:vector  ETV
attr source  ContentManager_PieceDownloaded
attr title  "Pieces Downloaded, vector"
vector 993  BasicTopology.peer[20].bitTorrentApp.bitTorrentClient.contentManager_26  TotalBytesUploaded:vector  ETV
attr source  ContentManager_TotalBytesUploaded
attr title  "Total of Bytes Uploaded, vector"
attr unit  B
vector 985  BasicTopology.peer[19].bitTorrentApp.bitTorrentClient.contentManager_26  TotalBytesUploaded:vector  ETV
attr source  ContentManager_TotalBytesUploaded
attr title  "Total of Bytes Uploaded, vector"
attr unit  B
vector 1025  BasicTopology.peer[24].bitTorrentApp.bitTorrentClient.contentManager_26  TotalBytesUploaded:vector  ETV
attr source  ContentManager_TotalBytesUploaded
attr title  "Total of Bytes Uploaded, vector"
attr unit  B
vector 975  BasicTopology.peer[18].bitTorrentApp.bitTorrentClient.contentManager_26  PiecesDownloaded:vector  ETV
attr source  ContentManager_PieceDownloaded
attr title  "Pieces Downloaded, vector"
vector 953  BasicTopology.peer[15].bitTorrentApp.bitTorrentClient.contentManager_26  TotalBytesUploaded:vector  ETV
attr source  ContentManager_TotalBytesUploaded
attr title  "Total of Bytes Uploaded, vector"
attr unit  B
vector 889  BasicTopology.peer[7].bitTorrentApp.bitTorrentClient.contentManager_26  TotalBytesUploaded:vector  ETV
attr source  ContentManager_TotalBytesUploaded
attr title  "Total of Bytes Uploaded, vector"
attr unit  B
vector 945  BasicTopology.peer[14].bitTorrentApp.bitTorrentClient.contentManager_26  TotalBytesUploaded:vector  ETV
attr source  ContentManager_TotalBytesUploaded
attr title  "Total of Bytes Uploaded, vector"
attr unit  B
3	85	36001	36001
3	41408207	36071.935921993952	36071.935921994
5	86	36001	36001
5	57338393	36099.875838849073	36099.875838849
7	87	36001	36001
7	61602868	36108.757861233207	36108.757861233
9	88	36001	36001
9	64888588	36115.112272081038	36115.112272081
11	89	36001	36001
11	67695535	36121.037427954386	36121.037427954
13	90	36001	36001
13	69451575	36125.475983212672	36125.475983213
15	91	36001	36001
15	64715898	36114.816426422061	36114.816426422
17	92	36001	36001
17	79037143	36305.262113607176	36305.262113607
19	93	36001	36001
19	67467270	36120.536321580394	36120.53632158
21	94	36001	36001
21	68260804	36122.382190117245	36122.382190117
23	95	36001	36001
23	62861233	36111.376950925396	36111.376950925
25	96	36001	36001
25	58056593	36101.403332282363	36101.403332282
27	97	36001	36001
27	71597759	36131.513753076844	36131.513753077
29	98	36001	36001
29	73223429	36135.723441347799	36135.723441348
31	99	36001	36001
31	77609521	36149.198684238117	36149.198684238
33	100	36001	36001
33	73622240	36136.943203703392	36136.943203703
35	101	36001	36001
35	73047344	36135.424225954878	36135.424225955
37	102	36001	36001
37	77453097	36148.776549620205	36148.77654962
39	103	36001	36001
39	76402862	36144.267226810153	36144.26722681
41	104	36001	36001
41	72088508	36132.819204625254	36132.819204625
43	105	36001	36001
43	40334713	36070.237049443009	36070.237049443
45	106	36001	36001
45	54886072	36095.277563933179	36095.277563933
47	107	36001	36001
47	48109858	36083.016800508063	36083.016800508
49	108	36001	36001
49	66555483	36118.483200052012	36118.483200052
833	176980	36001.191062723745	32768
833	177099	36001.191214629143	65536
833	177217	36001.19136190299	98304
833	177740	36001.192234045421	131072
833	178828	36001.193584078206	163840
833	180652	36001.196803751405	196608
833	188992	36001.207647525234	229376
833	191151	36001.233198906703	262144
833	191153	36001.233612324944	294912
833	191155	36001.236600116766	327680
833	400297	36002.177496229401	360448
833	401531	36002.182494665711	393216
833	406266	36002.198845012947	425984
833	406930	36002.201707805558	458752
833	411250	36002.218711734718	491520
833	412087	36002.221372086193	524288
833	412262	36002.222085585849	557056
833	412579	36002.223060823487	589824
833	412725	36002.22357188244	622592
833	413084	36002.232664414658	655360
833	421272	36002.423857330613	688128
833	435058	36002.469227580493	720896
833	530107	36002.577160856045	753664
833	536875	36002.585134337105	786432
833	537976	36002.586644095944	819200
833	552821	36002.613287498072	851968
833	557234	36002.62355453915	884736
833	557422	36002.6241479593	917504
833	563041	36002.641373049923	950272
833	563949	36002.642816246774	983040
833	564568	36002.643508696138	1015808
833	566606	36002.654765208483	1048576
833	643200	36003.537699982357	1081344
833	657174	36003.583028129294	1114112
833	669542	36003.623137632541	1146880
833	684408	36003.668244996009	1179648
833	699922	36003.717583511909	1212416
833	817888	36004.101368103507	1245184
833	818115	36004.10155553194	1277952
833	821413	36004.105641418351	1310720
833	825053	36004.110180784446	1343488
833	827757	36004.113458639128	1376256
833	827942	36004.113916050196	1409024
833	840967	36004.12925599938	1441792
833	854646	36004.142926920442	1474560
833	855487	36004.143677809263	1507328
833	869193	36004.156415908024	1540096
833	1310131	36005.572268100071	1572864
833	1325265	36005.605484917007	1605632
833	1342127	36005.768496245905	1638400
833	1343083	36005.77156521118	1671168
833	1345793	36005.781196333191	1703936
833	1349037	36005.792617708629	1736704
833	1349210	36005.79298818053	1769472
833	1349480	36005.793849770517	1802240
833	1350957	36005.79862686916	1835008
833	1352184	36005.802592218942	1867776
833	1359606	36005.828114832665	1900544
833	1360898	36005.832532298417	1933312
833	1361762	36005.835368675261	1966080
833	1506312	36006.342774187161	1998848
833	1553593	36006.440571397915	2031616
833	1605482	36006.548893118543	2064384
833	1662647	36006.870597349753	2097152
833	1662649	36006.878416805247	2129920
833	1662651	36006.879894445822	2162688
833	1662653	36006.882056371237	2195456
833	1710143	36007.07244752512	2228224
833	1751526	36007.153996398803	2260992
833	1771781	36007.218935907118	2293760
833	1793889	36007.286691367477	2326528
833	1908000	36007.728753958544	2359296
833	1924895	36007.780554632697	2392064
833	1940015	36007.823825818106	2424832
833	1957103	36007.875059387826	2457600
833	1972774	36007.922111179044	2490368
833	1998491	36007.984450437416	2523136
833	2092350	36008.167560242598	2555904
833	2127834	36008.235307014199	2588672
833	2242367	36008.698735269132	2621440
833	2392625	36009.105487070629	2654208
833	2942008	36010.241048085267	2686976
833	3045652	36010.461993350566	2719744
833	3608788	36011.368096829378	2752512
833	3905233	36011.815798346197	2785280
833	4113542	36012.325037936989	2818048
833	4147742	36012.383300700522	2850816
833	4184025	36012.444432999358	2883584
833	4210580	36012.487527761792	2916352
833	4248565	36012.539725138887	2949120
833	4280248	36012.593695764711	2981888
833	4328699	36012.671081989234	3014656
833	4497204	36012.91281037032	3047424
833	4565302	36012.996773818676	3080192
833	4699577	36013.16900627257	3112960
833	4950196	36013.692649688925	3145728
833	4997182	36013.772230881123	3178496
833	5618036	36014.734906319649	3211264
833	5631988	36014.751261574033	3244032
833	5634734	36014.75584574528	3276800
833	5634867	36014.756104472982	3309568
833	5635158	36014.756469719815	3342336
833	5695860	36014.849580586015	3375104
833	5743717	36014.965664057555	3407872
833	5798987	36015.112621085545	3440640
833	6323467	36015.973326311352	3473408
833	6443386	36016.131000847334	3506176
833	6501543	36016.214055987983	3538944
833	6589714	36016.331199991081	3571712
833	6740435	36016.549030439968	3604480
833	7175700	36017.268250841867	3637248
833	7229509	36017.356491475232	3670016
833	7465385	36017.677671563205	3702784
833	7537483	36017.769625233689	3735552
833	7609134	36017.875418533528	3768320
833	7662378	36017.951461832054	3801088
833	7691716	36017.996798441624	3833856
833	7719974	36018.038208919339	3866624
833	7767825	36018.107744173004	3899392
833	8382620	36019.184250215024	3932160
833	8436044	36019.292295654752	3964928
833	8447820	36019.318674234876	3997696
833	8451739	36019.327373377164	4030464
833	8451741	36019.327377757721	4063232
833	8454391	36019.332435874953	4096000
833	8548771	36019.500913127577	4128768
833	8654112	36019.639413346522	4161536
833	9146126	36020.345703470317	4194304
833	9222819	36020.446278842701	4227072
833	9519670	36020.840084038636	4259840
833	10006452	36021.515723797973	4292608
833	10211381	36021.816142028267	4325376
833	10309164	36021.956317449633	4358144
833	11324338	36023.597552793017	4390912
833	11365210	36023.660634258818	4423680
833	11982381	36024.767197752354	4456448
833	12224470	36025.158305284217	4489216
833	12275179	36025.230049448372	4521984
833	12906390	36026.33992670936	4554752
833	13254149	36026.948677455062	4587520
833	14645967	36029.285688505328	4620288
833	14734926	36029.444980367486	4653056
833	14764084	36029.496275497072	4685824
833	14810402	36029.593348792714	4718592
833	14852848	36029.675209099216	4751360
833	14899530	36029.752864200396	4784128
833	14956306	36029.838088880105	4816896
833	15092767	36030.061540205707	4849664
833	15147703	36030.143986854108	4882432
833	15245748	36030.310070537778	4915200
833	15866569	36031.171372999873	4947968
833	15867055	36031.172120660889	4980736
833	15877971	36031.187147201678	5013504
833	15879272	36031.18854939291	5046272
833	15879770	36031.189473934206	5079040
833	15880660	36031.19111619239	5111808
833	15891634	36031.206290444193	5144576
833	15898845	36031.215777523753	5177344
833	15909009	36031.228271286664	5210112
833	15932592	36031.258642249856	5242880
833	16009210	36031.399622234238	5275648
833	16657085	36032.350667808156	5308416
833	16750593	36032.497708952866	5341184
833	16802087	36032.594285540436	5373952
833	17378368	36033.521738189072	5406720
833	17476839	36033.672278645304	5439488
833	18186164	36034.78786625712	5472256
833	19814481	36037.714228942904	5505024
833	19881911	36037.831350214626	5537792
833	19968437	36037.986423535137	5570560
833	20830980	36039.342371451539	5603328
833	21360028	36040.087157399005	5636096
833	22076731	36041.242525510167	5668864
833	22195388	36041.41913090944	5701632
833	22291359	36041.554008203071	5734400
833	22373787	36041.67678381211	5767168
833	22544115	36041.955417524115	5799936
833	22551809	36041.966036667326	5832704
833	22558592	36041.976856396895	5865472
833	22558891	36041.977225591611	5898240
833	22572498	36041.996827487582	5931008
833	22574349	36042.000516402155	5963776
833	22574499	36042.000707243589	5996544
833	22589850	36042.022269532081	6029312
833	22599943	36042.036695822308	6062080
833	22600495	36042.037235884247	6094848
833	22942365	36042.651289443809	6127616
833	23248702	36043.124801327945	6160384
833	23397857	36043.324351182507	6193152
833	23697833	36043.884701956565	6225920
833	24079098	36044.519853585664	6258688
833	24726029	36045.639588918854	6291456
833	24806176	36045.768520643677	6324224
833	24880428	36045.894797152413	6356992
833	24991967	36046.037956499331	6389760
833	25103550	36046.175496003857	6422528
833	25109580	36046.183637337368	6455296
833	25119282	36046.19758594702	6488064
833	25129537	36046.211461556016	6520832
833	25135237	36046.218779711029	6553600
833	25136412	36046.22043042781	6586368
833	25149100	36046.238496924448	6619136
833	25149754	36046.239501045624	6651904
833	25150464	36046.240447821852	6684672
833	25154187	36046.245585082897	6717440
833	25156430	36046.248529161825	6750208
833	25252524	36046.381191107711	6782976