version 2
run Test-20-20200425-12:24:19-9457
attr configname Test
attr datetime 20200425-12:24:19
attr experiment "\"Simulation Test\""
attr inifile BasicConfig.ini
attr iterationvars ""
attr iterationvars2 $repetition=20
attr measurement "\"Peers: $peers, Rate: $rate\""
attr network BasicTopology
attr processid 9457
attr repetition 20
attr replication #20
attr resultdir results
attr runnumber 20
attr seedset 20

vector 3  BasicTopology.peer[1].bitTorrentApp.bitTorrentClient  DownloadComplete_Test:vector  ETV
attr source  BitTorrentClient_DownloadComplete_Test
attr title  "Descargas completas (prueba), vector"
vector 5  BasicTopology.peer[2].bitTorrentApp.bitTorrentClient  DownloadComplete_Test:vector  ETV
attr source  BitTorrentClient_DownloadComplete_Test
attr title  "Descargas completas (prueba), vector"
vector 7  BasicTopology.peer[3].bitTorrentApp.bitTorrentClient  DownloadComplete_Test:vector  ETV
attr source  BitTorrentClient_DownloadComplete_Test
attr title  "Descargas completas (prueba), vector"
vector 9  BasicTopology.peer[4].bitTorrentApp.bitTorrentClient  DownloadComplete_Test:vector  ETV
attr source  BitTorrentClient_DownloadComplete_Test
attr title  "Descargas completas (prueba), vector"
vector 11  BasicTopology.peer[5].bitTorrentApp.bitTorrentClient  DownloadComplete_Test:vector  ETV
attr source  BitTorrentClient_DownloadComplete_Test
attr title  "Descargas completas (prueba), vector"
vector 13  BasicTopology.peer[6].bitTorrentApp.bitTorrentClient  DownloadComplete_Test:vector  ETV
attr source  BitTorrentClient_DownloadComplete_Test
attr title  "Descargas completas (prueba), vector"
vector 15  BasicTopology.peer[7].bitTorrentApp.bitTorrentClient  DownloadComplete_Test:vector  ETV
attr source  BitTorrentClient_DownloadComplete_Test
attr title  "Descargas completas (prueba), vector"
vector 17  BasicTopology.peer[8].bitTorrentApp.bitTorrentClient  DownloadComplete_Test:vector  ETV
attr source  BitTorrentClient_DownloadComplete_Test
attr title  "Descargas completas (prueba), vector"
vector 19  BasicTopology.peer[9].bitTorrentApp.bitTorrentClient  DownloadComplete_Test:vector  ETV
attr source  BitTorrentClient_DownloadComplete_Test
attr title  "Descargas completas (prueba), vector"
vector 21  BasicTopology.peer[10].bitTorrentApp.bitTorrentClient  DownloadComplete_Test:vector  ETV
attr source  BitTorrentClient_DownloadComplete_Test
attr title  "Descargas completas (prueba), vector"
vector 23  BasicTopology.peer[11].bitTorrentApp.bitTorrentClient  DownloadComplete_Test:vector  ETV
attr source  BitTorrentClient_DownloadComplete_Test
attr title  "Descargas completas (prueba), vector"
vector 25  BasicTopology.peer[12].bitTorrentApp.bitTorrentClient  DownloadComplete_Test:vector  ETV
attr source  BitTorrentClient_DownloadComplete_Test
attr title  "Descargas completas (prueba), vector"
vector 27  BasicTopology.peer[13].bitTorrentApp.bitTorrentClient  DownloadComplete_Test:vector  ETV
attr source  BitTorrentClient_DownloadComplete_Test
attr title  "Descargas completas (prueba), vector"
vector 29  BasicTopology.peer[14].bitTorrentApp.bitTorrentClient  DownloadComplete_Test:vector  ETV
attr source  BitTorrentClient_DownloadComplete_Test
attr title  "Descargas completas (prueba), vector"
vector 31  BasicTopology.peer[15].bitTorrentApp.bitTorrentClient  DownloadComplete_Test:vector  ETV
attr source  BitTorrentClient_DownloadComplete_Test
attr title  "Descargas completas (prueba), vector"
vector 33  BasicTopology.peer[16].bitTorrentApp.bitTorrentClient  DownloadComplete_Test:vector  ETV
attr source  BitTorrentClient_DownloadComplete_Test
attr title  "Descargas completas (prueba), vector"
vector 35  BasicTopology.peer[17].bitTorrentApp.bitTorrentClient  DownloadComplete_Test:vector  ETV
attr source  BitTorrentClient_DownloadComplete_Test
attr title  "Descargas completas (prueba), vector"
vector 37  BasicTopology.peer[18].bitTorrentApp.bitTorrentClient  DownloadComplete_Test:vector  ETV
attr source  BitTorrentClient_DownloadComplete_Test
attr title  "Descargas completas (prueba), vector"
vector 39  BasicTopology.peer[19].bitTorrentApp.bitTorrentClient  DownloadComplete_Test:vector  ETV
attr source  BitTorrentClient_DownloadComplete_Test
attr title  "Descargas completas (prueba), vector"
vector 41  BasicTopology.peer[20].bitTorrentApp.bitTorrentClient  DownloadComplete_Test:vector  ETV
attr source  BitTorrentClient_DownloadComplete_Test
attr title  "Descargas completas (prueba), vector"
vector 43  BasicTopology.peer[21].bitTorrentApp.bitTorrentClient  DownloadComplete_Test:vector  ETV
attr source  BitTorrentClient_DownloadComplete_Test
attr title  "Descargas completas (prueba), vector"
vector 45  BasicTopology.peer[22].bitTorrentApp.bitTorrentClient  DownloadComplete_Test:vector  ETV
attr source  BitTorrentClient_DownloadComplete_Test
attr title  "Descargas completas (prueba), vector"
vector 47  BasicTopology.peer[23].bitTorrentApp.bitTorrentClient  DownloadComplete_Test:vector  ETV
attr source  BitTorrentClient_DownloadComplete_Test
attr title  "Descargas completas (prueba), vector"
vector 49  BasicTopology.peer[24].bitTorrentApp.bitTorrentClient  DownloadComplete_Test:vector  ETV
attr source  BitTorrentClient_DownloadComplete_Test
attr title  "Descargas completas (prueba), vector"
vector 833  BasicTopology.peer[0].bitTorrentApp.bitTorrentClient.contentManager_26  TotalBytesUploaded:vector  ETV
attr source  ContentManager_TotalBytesUploaded
attr title  "Total of Bytes Uploaded, vector"
attr unit  B
vector 1000  BasicTopology.peer[21].bitTorrentApp.bitTorrentClient.contentManager_26  TotalBytesDownloaded:vector  ETV
attr source  ContentManager_TotalBytesDownloaded
attr title  "Total of Bytes Downloaded, vector"
attr unit  B
vector 992  BasicTopology.peer[20].bitTorrentApp.bitTorrentClient.contentManager_26  TotalBytesDownloaded:vector  ETV
attr source  ContentManager_TotalBytesDownloaded
attr title  "Total of Bytes Downloaded, vector"
attr unit  B
vector 840  BasicTopology.peer[1].bitTorrentApp.bitTorrentClient.contentManager_26  TotalBytesDownloaded:vector  ETV
attr source  ContentManager_TotalBytesDownloaded
attr title  "Total of Bytes Downloaded, vector"
attr unit  B
vector 839  BasicTopology.peer[1].bitTorrentApp.bitTorrentClient.contentManager_26  PiecesDownloaded:vector  ETV
attr source  ContentManager_PieceDownloaded
attr title  "Pieces Downloaded, vector"
vector 841  BasicTopology.peer[1].bitTorrentApp.bitTorrentClient.contentManager_26  TotalBytesUploaded:vector  ETV
attr source  ContentManager_TotalBytesUploaded
attr title  "Total of Bytes Uploaded, vector"
attr unit  B
vector 920  BasicTopology.peer[11].bitTorrentApp.bitTorrentClient.contentManager_26  TotalBytesDownloaded:vector  ETV
attr source  ContentManager_TotalBytesDownloaded
attr title  "Total of Bytes Downloaded, vector"
attr unit  B
vector 936  BasicTopology.peer[13].bitTorrentApp.bitTorrentClient.contentManager_26  TotalBytesDownloaded:vector  ETV
attr source  ContentManager_TotalBytesDownloaded
attr title  "Total of Bytes Downloaded, vector"
attr unit  B
vector 991  BasicTopology.peer[20].bitTorrentApp.bitTorrentClient.contentManager_26  PiecesDownloaded:vector  ETV
attr source  ContentManager_PieceDownloaded
attr title  "Pieces Downloaded, vector"
vector 993  BasicTopology.peer[20].bitTorrentApp.bitTorrentClient.contentManager_26  TotalBytesUploaded:vector  ETV
attr source  ContentManager_TotalBytesUploaded
attr title  "Total of Bytes Uploaded, vector"
attr unit  B
vector 919  BasicTopology.peer[11].bitTorrentApp.bitTorrentClient.contentManager_26  PiecesDownloaded:vector  ETV
attr source  ContentManager_PieceDownloaded
attr title  "Pieces Downloaded, vector"
vector 921  BasicTopology.peer[11].bitTorrentApp.bitTorrentClient.contentManager_26  TotalBytesUploaded:vector  ETV
attr source  ContentManager_TotalBytesUploaded
attr title  "Total of Bytes Uploaded, vector"
attr unit  B
vector 872  BasicTopology.peer[5].bitTorrentApp.bitTorrentClient.contentManager_26  TotalBytesDownloaded:vector  ETV
attr source  ContentManager_TotalBytesDownloaded
attr title  "Total of Bytes Downloaded, vector"
attr unit  B
vector 864  BasicTopology.peer[4].bitTorrentApp.bitTorrentClient.contentManager_26  TotalBytesDownloaded:vector  ETV
attr source  ContentManager_TotalBytesDownloaded
attr title  "Total of Bytes Downloaded, vector"
attr unit  B
vector 952  BasicTopology.peer[15].bitTorrentApp.bitTorrentClient.contentManager_26  TotalBytesDownloaded:vector  ETV
attr source  ContentManager_TotalBytesDownloaded
attr title  "Total of Bytes Downloaded, vector"
attr unit  B
vector 928  BasicTopology.peer[12].bitTorrentApp.bitTorrentClient.contentManager_26  TotalBytesDownloaded:vector  ETV
attr source  ContentManager_TotalBytesDownloaded
attr title  "Total of Bytes Downloaded, vector"
attr unit  B
vector 999  BasicTopology.peer[21].bitTorrentApp.bitTorrentClient.contentManager_26  PiecesDownloaded:vector  ETV
attr source  ContentManager_PieceDownloaded
attr title  "Pieces Downloaded, vector"
vector 1001  BasicTopology.peer[21].bitTorrentApp.bitTorrentClient.contentManager_26  TotalBytesUploaded:vector  ETV
attr source  ContentManager_TotalBytesUploaded
attr title  "Total of Bytes Uploaded, vector"
attr unit  B
vector 863  BasicTopology.peer[4].bitTorrentApp.bitTorrentClient.contentManager_26  PiecesDownloaded:vector  ETV
attr source  ContentManager_PieceDownloaded
attr title  "Pieces Downloaded, vector"
vector 865  BasicTopology.peer[4].bitTorrentApp.bitTorrentClient.contentManager_26  TotalBytesUploaded:vector  ETV
attr source  ContentManager_TotalBytesUploaded
attr title  "Total of Bytes Uploaded, vector"
attr unit  B
vector 912  BasicTopology.peer[10].bitTorrentApp.bitTorrentClient.contentManager_26  TotalBytesDownloaded:vector  ETV
attr source  ContentManager_TotalBytesDownloaded
attr title  "Total of Bytes Downloaded, vector"
attr unit  B
vector 880  BasicTopology.peer[6].bitTorrentApp.bitTorrentClient.contentManager_26  TotalBytesDownloaded:vector  ETV
attr source  ContentManager_TotalBytesDownloaded
attr title  "Total of Bytes Downloaded, vector"
attr unit  B
vector 848  BasicTopology.peer[2].bitTorrentApp.bitTorrentClient.contentManager_26  TotalBytesDownloaded:vector  ETV
attr source  ContentManager_TotalBytesDownloaded
attr title  "Total of Bytes Downloaded, vector"
attr unit  B
vector 1024  BasicTopology.peer[24].bitTorrentApp.bitTorrentClient.contentManager_26  TotalBytesDownloaded:vector  ETV
attr source  ContentManager_TotalBytesDownloaded
attr title  "Total of Bytes Downloaded, vector"
attr unit  B
vector 904  BasicTopology.peer[9].bitTorrentApp.bitTorrentClient.contentManager_26  TotalBytesDownloaded:vector  ETV
attr source  ContentManager_TotalBytesDownloaded
attr title  "Total of Bytes Downloaded, vector"
attr unit  B
vector 896  BasicTopology.peer[8].bitTorrentApp.bitTorrentClient.contentManager_26  TotalBytesDownloaded:vector  ETV
attr source  ContentManager_TotalBytesDownloaded
attr title  "Total of Bytes Downloaded, vector"
attr unit  B
vector 888  BasicTopology.peer[7].bitTorrentApp.bitTorrentClient.contentManager_26  TotalBytesDownloaded:vector  ETV
attr source  ContentManager_TotalBytesDownloaded
attr title  "Total of Bytes Downloaded, vector"
attr unit  B
vector 1016  BasicTopology.peer[23].bitTorrentApp.bitTorrentClient.contentManager_26  TotalBytesDownloaded:vector  ETV
attr source  ContentManager_TotalBytesDownloaded
attr title  "Total of Bytes Downloaded, vector"
attr unit  B
vector 903  BasicTopology.peer[9].bitTorrentApp.bitTorrentClient.contentManager_26  PiecesDownloaded:vector  ETV
attr source  ContentManager_PieceDownloaded
attr title  "Pieces Downloaded, vector"
vector 905  BasicTopology.peer[9].bitTorrentApp.bitTorrentClient.contentManager_26  TotalBytesUploaded:vector  ETV
attr source  ContentManager_TotalBytesUploaded
attr title  "Total of Bytes Uploaded, vector"
attr unit  B
vector 927  BasicTopology.peer[12].bitTorrentApp.bitTorrentClient.contentManager_26  PiecesDownloaded:vector  ETV
attr source  ContentManager_PieceDownloaded
attr title  "Pieces Downloaded, vector"
vector 929  BasicTopology.peer[12].bitTorrentApp.bitTorrentClient.contentManager_26  TotalBytesUploaded:vector  ETV
attr source  ContentManager_TotalBytesUploaded
attr title  "Total of Bytes Uploaded, vector"
attr unit  B
vector 879  BasicTopology.peer[6].bitTorrentApp.bitTorrentClient.contentManager_26  PiecesDownloaded:vector  ETV
attr source  ContentManager_PieceDownloaded
attr title  "Pieces Downloaded, vector"
vector 911  BasicTopology.peer[10].bitTorrentApp.bitTorrentClient.contentManager_26  PiecesDownloaded:vector  ETV
attr source  ContentManager_PieceDownloaded
attr title  "Pieces Downloaded, vector"
vector 881  BasicTopology.peer[6].bitTorrentApp.bitTorrentClient.contentManager_26  TotalBytesUploaded:vector  ETV
attr source  ContentManager_TotalBytesUploaded
attr title  "Total of Bytes Uploaded, vector"
attr unit  B
vector 984  BasicTopology.peer[19].bitTorrentApp.bitTorrentClient.contentManager_26  TotalBytesDownloaded:vector  ETV
attr source  ContentManager_TotalBytesDownloaded
attr title  "Total of Bytes Downloaded, vector"
attr unit  B
vector 968  BasicTopology.peer[17].bitTorrentApp.bitTorrentClient.contentManager_26  TotalBytesDownloaded:vector  ETV
attr source  ContentManager_TotalBytesDownloaded
attr title  "Total of Bytes Downloaded, vector"
attr unit  B
vector 856  BasicTopology.peer[3].bitTorrentApp.bitTorrentClient.contentManager_26  TotalBytesDownloaded:vector  ETV
attr source  ContentManager_TotalBytesDownloaded
attr title  "Total of Bytes Downloaded, vector"
attr unit  B
vector 976  BasicTopology.peer[18].bitTorrentApp.bitTorrentClient.contentManager_26  TotalBytesDownloaded:vector  ETV
attr source  ContentManager_TotalBytesDownloaded
attr title  "Total of Bytes Downloaded, vector"
attr unit  B
vector 975  BasicTopology.peer[18].bitTorrentApp.bitTorrentClient.contentManager_26  PiecesDownloaded:vector  ETV
attr source  ContentManager_PieceDownloaded
attr title  "Pieces Downloaded, vector"
vector 977  BasicTopology.peer[18].bitTorrentApp.bitTorrentClient.contentManager_26  TotalBytesUploaded:vector  ETV
attr source  ContentManager_TotalBytesUploaded
attr title  "Total of Bytes Uploaded, vector"
attr unit  B
vector 944  BasicTopology.peer[14].bitTorrentApp.bitTorrentClient.contentManager_26  TotalBytesDownloaded:vector  ETV
attr source  ContentManager_TotalBytesDownloaded
attr title  "Total of Bytes Downloaded, vector"
attr unit  B
vector 913  BasicTopology.peer[10].bitTorrentApp.bitTorrentClient.contentManager_26  TotalBytesUploaded:vector  ETV
attr source  ContentManager_TotalBytesUploaded
attr title  "Total of Bytes Uploaded, vector"
attr unit  B
vector 983  BasicTopology.peer[19].bitTorrentApp.bitTorrentClient.contentManager_26  PiecesDownloaded:vector  ETV
attr source  ContentManager_PieceDownloaded
attr title  "Pieces Downloaded, vector"
vector 1008  BasicTopology.peer[22].bitTorrentApp.bitTorrentClient.contentManager_26  TotalBytesDownloaded:vector  ETV
attr source  ContentManager_TotalBytesDownloaded
attr title  "Total of Bytes Downloaded, vector"
attr unit  B
vector 871  BasicTopology.peer[5].bitTorrentApp.bitTorrentClient.contentManager_26  PiecesDownloaded:vector  ETV
attr source  ContentManager_PieceDownloaded
attr title  "Pieces Downloaded, vector"
vector 873  BasicTopology.peer[5].bitTorrentApp.bitTorrentClient.contentManager_26  TotalBytesUploaded:vector  ETV
attr source  ContentManager_TotalBytesUploaded
attr title  "Total of Bytes Uploaded, vector"
attr unit  B
vector 943  BasicTopology.peer[14].bitTorrentApp.bitTorrentClient.contentManager_26  PiecesDownloaded:vector  ETV
attr source  ContentManager_PieceDownloaded
attr title  "Pieces Downloaded, vector"
vector 935  BasicTopology.peer[13].bitTorrentApp.bitTorrentClient.contentManager_26  PiecesDownloaded:vector  ETV
attr source  ContentManager_PieceDownloaded
attr title  "Pieces Downloaded, vector"
vector 951  BasicTopology.peer[15].bitTorrentApp.bitTorrentClient.contentManager_26  PiecesDownloaded:vector  ETV
attr source  ContentManager_PieceDownloaded
attr title  "Pieces Downloaded, vector"
vector 967  BasicTopology.peer[17].bitTorrentApp.bitTorrentClient.contentManager_26  PiecesDownloaded:vector  ETV
attr source  ContentManager_PieceDownloaded
attr title  "Pieces Downloaded, vector"
vector 855  BasicTopology.peer[3].bitTorrentApp.bitTorrentClient.contentManager_26  PiecesDownloaded:vector  ETV
attr source  ContentManager_PieceDownloaded
attr title  "Pieces Downloaded, vector"
vector 857  BasicTopology.peer[3].bitTorrentApp.bitTorrentClient.contentManager_26  TotalBytesUploaded:vector  ETV
attr source  ContentManager_TotalBytesUploaded
attr title  "Total of Bytes Uploaded, vector"
attr unit  B
vector 960  BasicTopology.peer[16].bitTorrentApp.bitTorrentClient.contentManager_26  TotalBytesDownloaded:vector  ETV
attr source  ContentManager_TotalBytesDownloaded
attr title  "Total of Bytes Downloaded, vector"
attr unit  B
vector 1023  BasicTopology.peer[24].bitTorrentApp.bitTorrentClient.contentManager_26  PiecesDownloaded:vector  ETV
attr source  ContentManager_PieceDownloaded
attr title  "Pieces Downloaded, vector"
vector 1015  BasicTopology.peer[23].bitTorrentApp.bitTorrentClient.contentManager_26  PiecesDownloaded:vector  ETV
attr source  ContentManager_PieceDownloaded
attr title  "Pieces Downloaded, vector"
vector 847  BasicTopology.peer[2].bitTorrentApp.bitTorrentClient.contentManager_26  PiecesDownloaded:vector  ETV
attr source  ContentManager_PieceDownloaded
attr title  "Pieces Downloaded, vector"
vector 937  BasicTopology.peer[13].bitTorrentApp.bitTorrentClient.contentManager_26  TotalBytesUploaded:vector  ETV
attr source  ContentManager_TotalBytesUploaded
attr title  "Total of Bytes Uploaded, vector"
attr unit  B
vector 1025  BasicTopology.peer[24].bitTorrentApp.bitTorrentClient.contentManager_26  TotalBytesUploaded:vector  ETV
attr source  ContentManager_TotalBytesUploaded
attr title  "Total of Bytes Uploaded, vector"
attr unit  B
vector 959  BasicTopology.peer[16].bitTorrentApp.bitTorrentClient.contentManager_26  PiecesDownloaded:vector  ETV
attr source  ContentManager_PieceDownloaded
attr title  "Pieces Downloaded, vector"
vector 953  BasicTopology.peer[15].bitTorrentApp.bitTorrentClient.contentManager_26  TotalBytesUploaded:vector  ETV
attr source  ContentManager_TotalBytesUploaded
attr title  "Total of Bytes Uploaded, vector"
attr unit  B
vector 1017  BasicTopology.peer[23].bitTorrentApp.bitTorrentClient.contentManager_26  TotalBytesUploaded:vector  ETV
attr source  ContentManager_TotalBytesUploaded
attr title  "Total of Bytes Uploaded, vector"
attr unit  B
vector 887  BasicTopology.peer[7].bitTorrentApp.bitTorrentClient.contentManager_26  PiecesDownloaded:vector  ETV
attr source  ContentManager_PieceDownloaded
attr title  "Pieces Downloaded, vector"
vector 1007  BasicTopology.peer[22].bitTorrentApp.bitTorrentClient.contentManager_26  PiecesDownloaded:vector  ETV
attr source  ContentManager_PieceDownloaded
attr title  "Pieces Downloaded, vector"
vector 849  BasicTopology.peer[2].bitTorrentApp.bitTorrentClient.contentManager_26  TotalBytesUploaded:vector  ETV
attr source  ContentManager_TotalBytesUploaded
attr title  "Total of Bytes Uploaded, vector"
attr unit  B
vector 1009  BasicTopology.peer[22].bitTorrentApp.bitTorrentClient.contentManager_26  TotalBytesUploaded:vector  ETV
attr source  ContentManager_TotalBytesUploaded
attr title  "Total of Bytes Uploaded, vector"
attr unit  B
vector 895  BasicTopology.peer[8].bitTorrentApp.bitTorrentClient.contentManager_26  PiecesDownloaded:vector  ETV
attr source  ContentManager_PieceDownloaded
attr title  "Pieces Downloaded, vector"
vector 889  BasicTopology.peer[7].bitTorrentApp.bitTorrentClient.contentManager_26  TotalBytesUploaded:vector  ETV
attr source  ContentManager_TotalBytesUploaded
attr title  "Total of Bytes Uploaded, vector"
attr unit  B
vector 897  BasicTopology.peer[8].bitTorrentApp.bitTorrentClient.contentManager_26  TotalBytesUploaded:vector  ETV
attr source  ContentManager_TotalBytesUploaded
attr title  "Total of Bytes Uploaded, vector"
attr unit  B
vector 945  BasicTopology.peer[14].bitTorrentApp.bitTorrentClient.contentManager_26  TotalBytesUploaded:vector  ETV
attr source  ContentManager_TotalBytesUploaded
attr title  "Total of Bytes Uploaded, vector"
attr unit  B
3	85	36001	36001
3	29271756	36054.882967718012	36054.882967718
5	86	36001	36001
5	43645421	36080.15121430933	36080.151214309
7	87	36001	36001
7	65445762	36123.182669989385	36123.182669989
9	88	36001	36001
9	73292614	36144.446828664	36144.446828664
11	89	36001	36001
11	76298789	36153.01910322369	36153.019103224
13	90	36001	36001
13	76143700	36152.536730318149	36152.536730318
15	91	36001	36001
15	65280380	36122.857996066162	36122.857996066
17	92	36001	36001
17	69117297	36132.108379746327	36132.108379746
19	93	36001	36001
19	72384108	36142.016052146548	36142.016052147
21	94	36001	36001
21	73048122	36143.817509616873	36143.817509617
23	95	36001	36001
23	68721854	36130.926971162048	36130.926971162
25	96	36001	36001
25	66622437	36125.660707943423	36125.660707943
27	97	36001	36001
27	73580625	36145.243691904138	36145.243691904
29	98	36001	36001
29	71158896	36138.651907776864	36138.651907777
31	99	36001	36001
31	66718199	36125.864814883255	36125.864814883
33	100	36001	36001
33	76983782	36305.057650397411	36305.057650397
35	101	36001	36001
35	74852848	36148.633542262689	36148.633542263
37	102	36001	36001
37	76769916	36302.469834358946	36302.469834359
39	103	36001	36001
39	73378600	36144.679073549353	36144.679073549
41	104	36001	36001
41	32914035	36060.729476239318	36060.729476239
43	105	36001	36001
43	28330520	36053.391190563384	36053.391190563
45	106	36001	36001
45	63516799	36118.971665702361	36118.971665702
47	107	36001	36001
47	54868456	36101.921078961772	36101.921078962
49	108	36001	36001
49	73514476	36145.100914813826	36145.100914814
833	543873	36003.042991729804	32768
833	544197	36003.043831107845	65536
833	544210	36003.043928377942	98304
833	545123	36003.045445429334	131072
833	550475	36003.058322790706	163840
833	552619	36003.065315007406	196608
833	555805	36003.080438437337	229376
833	557125	36003.085385143488	262144
833	560040	36003.096886837337	294912
833	560088	36003.097029049366	327680
833	563861	36003.109072825067	360448
833	563949	36003.109362207828	393216
833	564362	36003.110812342198	425984
833	564939	36003.112999349768	458752
833	567172	36003.118776576103	491520
833	567382	36003.119425038787	524288
833	567412	36003.119538327764	557056
833	567830	36003.120767459495	589824
833	567938	36003.121058512777	622592
833	576004	36003.141451590471	655360
833	576202	36003.141982535331	688128
833	576732	36003.142884929836	720896
833	576974	36003.143414107146	753664
833	581487	36003.155131966571	786432
833	581722	36003.155815152807	819200
833	582084	36003.156911233836	851968
833	582737	36003.158829028916	884736
833	583504	36003.162023930668	917504
833	590432	36003.186458647316	950272
833	590545	36003.186861120268	983040
833	591930	36003.190029919221	1015808
833	611518	36003.253627404485	1048576
833	635381	36003.332927611222	1081344
833	690248	36004.037897162813	1114112
833	690844	36004.038285134546	1146880
833	708867	36004.052943685329	1179648
833	715798	36004.058507922451	1212416
833	715913	36004.058620148141	1245184
833	729221	36004.069392638004	1277952
833	747203	36004.086042968387	1310720
833	758702	36004.097879392256	1343488
833	759768	36004.099249737486	1376256
833	777886	36004.12051733344	1409024
833	810702	36004.159018843573	1441792
833	855729	36004.26468093154	1474560
833	865527	36004.303113832026	1507328
833	890491	36004.396242213757	1540096
833	896463	36004.418660905029	1572864
833	903544	36004.441741783852	1605632
833	915598	36004.478245908747	1638400
833	919581	36004.491932328577	1671168
833	1090654	36005.457108627538	1703936
833	1111827	36005.525308479572	1736704
833	1120618	36005.548618864118	1769472
833	1134304	36005.578897545	1802240
833	1142327	36005.599998853403	1835008
833	1180424	36006.524519077197	1867776
833	1195703	36006.584731378319	1900544
833	1227753	36006.675551847032	1933312
833	1248451	36006.770995562732	1966080
833	1266416	36006.814258030304	1998848
833	1274878	36006.836885898603	2031616
833	1281399	36006.86007225114	2064384
833	1294086	36006.904470047564	2097152
833	1371337	36007.639937789879	2129920
833	1382158	36007.678565534311	2162688
833	1422973	36007.794964619041	2195456
833	1426473	36007.806078310702	2228224
833	1436803	36007.841158007207	2260992
833	1447971	36007.974528006489	2293760
833	1470433	36008.051489675839	2326528
833	1478169	36008.075760265841	2359296
833	1497935	36008.146724000335	2392064
833	1676108	36008.787691810148	2424832
833	1715532	36008.879759840602	2457600
833	1761226	36009.189627394803	2490368
833	2011477	36009.868003982571	2523136
833	2030178	36009.909661531619	2555904
833	2051535	36009.953817467274	2588672
833	2051731	36009.954170152116	2621440
833	2052445	36009.956153684104	2654208
833	2052473	36009.956373233636	2686976
833	2115098	36010.03253598346	2719744
833	2244558	36010.26247756545	2752512
833	2329942	36010.51780707454	2785280
833	2336711	36010.533327751735	2818048
833	2452775	36010.818648603347	2850816
833	2509887	36010.944642515723	2883584
833	2593473	36011.174822825436	2916352
833	2623110	36011.245767673942	2949120
833	2659276	36011.340469979652	2981888
833	2724998	36011.504268663508	3014656
833	2975204	36012.072688747934	3047424
833	3009250	36012.161501830807	3080192
833	3057383	36012.264844322683	3112960
833	3100618	36012.356362566381	3145728
833	3147871	36012.456554686191	3178496
833	3200554	36012.60214429376	3211264
833	3212914	36012.640917359881	3244032
833	3217546	36012.654361763457	3276800
833	3217601	36012.65446871075	3309568
833	3279641	36012.860885641319	3342336
833	3317356	36012.988402485546	3375104
833	3397415	36013.093006622681	3407872
833	3752361	36013.836233141029	3440640
833	3960679	36014.176156565488	3473408
833	4018950	36014.297978959014	3506176
833	4060182	36014.364609362839	3538944
833	4107858	36014.452281255372	3571712
833	4129902	36014.492798590134	3604480
833	4145877	36014.533261133648	3637248
833	4189038	36014.626831303425	3670016
833	4750201	36015.65885635317	3702784
833	4891521	36015.84741676814	3735552
833	4906736	36015.873769742869	3768320
833	4939844	36015.932022035105	3801088
833	4981168	36016.017913803191	3833856
833	5369912	36017.007439068497	3866624
833	5427356	36017.116396252098	3899392
833	5481523	36017.201449922778	3932160
833	5885869	36017.939066177045	3964928
833	6154184	36018.322282752847	3997696
833	6567430	36019.066927183547	4030464
833	6600030	36019.112700333044	4063232
833	6630087	36019.155121841703	4096000
833	6682287	36019.224009307474	4128768
833	6829424	36019.417084312891	4161536
833	6903800	36019.525251337812	4194304
833	7241684	36020.188326246524	4227072
833	7320353	36020.349147530076	4259840
833	7420862	36020.484865749261	4292608
833	7594416	36020.704137804778	4325376
833	8768893	36022.290744016097	4358144
833	8809288	36022.353138311757	4390912
833	9093178	36022.788249787683	4423680
833	9093847	36022.789202671165	4456448
833	9103174	36022.809132648955	4489216
833	9114328	36022.835256742015	4521984
833	9116869	36022.840716477882	4554752
833	9366432	36023.446326104685	4587520
833	9504339	36023.666677552393	4620288
833	10023993	36024.453716992769	4653056
833	10075638	36024.544739630635	4685824
833	10117213	36024.603508604139	4718592
833	10149592	36024.649615365642	4751360
833	10160596	36024.66713516416	4784128
833	10202172	36024.725422441182	4816896
833	10332240	36024.905004613403	4849664
833	10416442	36025.040107587257	4882432
833	10550512	36025.214770636423	4915200
833	10606300	36025.296977357398	4947968
833	11388101	36026.800151511052	4980736
833	11405745	36026.828775773442	5013504
833	11450787	36026.891577655836	5046272
833	11618505	36027.123714548576	5079040
833	11702468	36027.271627954204	5111808
833	11747728	36027.341021518381	5144576
833	11825860	36027.503256260827	5177344
833	12048662	36027.86200152266	5210112
833	12137724	36027.989935897696	5242880
833	12165720	36028.029371058032	5275648
833	12193507	36028.07060240246	5308416
833	12568425	36028.620579650008	5341184
833	12575706	36028.631661010709	5373952
833	12803730	36029.071853678668	5406720
833	12829630	36029.10629244782	5439488
833	12904589	36029.210424124253	5472256
833	13365586	36029.840638694564	5505024
833	13539275	36030.11979149368	5537792
833	13806806	36030.555169545061	5570560
833	14103116	36031.067450921897	5603328
833	14157881	36031.14541837119	5636096
833	14159067	36031.147456536276	5668864
833	14162666	36031.151841745448	5701632
833	14212843	36031.229715632092	5734400
833	14361009	36031.456171156347	5767168
833	14456775	36031.577876309613	5799936
833	14568635	36031.763935309555	5832704
833	14570074	36031.765276921711	5865472
833	14888040	36032.259297958336	5898240
833	14991971	36032.396884897883	5931008
833	15052564	36032.485012796988	5963776
833	15108271	36032.561119623556	5996544
833	15531302	36033.324270269638	6029312
833	15550808	36033.350587642864	6062080
833	15583188	36033.393165125942	6094848
833	15739309	36033.625490149712	6127616
833	15817831	36033.745253654941	6160384
833	15874187	36033.825222499579	6193152
833	16017368	36034.04832274158	6225920
833	16083147	36034.146158835114	6258688
833	16793252	36035.238774710386	6291456
833	16795242	36035.242548904912	6324224
833	16803151	36035.254553755409	6356992
833	17226514	36035.893414021741	6389760
833	17295496	36036.070480881951	6422528
833	17296713	36036.071999743137	6455296
833	17297011	36036.072304626368	6488064
833	17300300	36036.076729916053	6520832
833	17314649	36036.09573418618	6553600
833	17315241	36036.096413810422	6586368
833	17315787	36036.097039936874	6619136
833	17330262	36036.116301612304	6651904
833	17330655	36036.116941339055	6684672
833	17340497	36036.133214157658	6717440
833	18172684	36037.645181798643	6750208
833	18265910	36037.794045808242	6782976
833	18317888	36037.884150251558	6815744