version 2
run Test-1-20200425-12:19:54-9264
attr configname Test
attr datetime 20200425-12:19:54
attr experiment "\"Simulation Test\""
attr inifile BasicConfig.ini
attr iterationvars ""
attr iterationvars2 $repetition=1
attr measurement "\"Peers: $peers, Rate: $rate\""
attr network BasicTopology
attr processid 9264
attr repetition 1
attr replication #1
attr resultdir results
attr runnumber 1
attr seedset 1

vector 3  BasicTopology.peer[1].bitTorrentApp.bitTorrentClient  DownloadComplete_Test:vector  ETV
attr source  BitTorrentClient_DownloadComplete_Test
attr title  "Descargas completas (prueba), vector"
vector 5  BasicTopology.peer[2].bitTorrentApp.bitTorrentClient  DownloadComplete_Test:vector  ETV
attr source  BitTorrentClient_DownloadComplete_Test
attr title  "Descargas completas (prueba), vector"
vector 7  BasicTopology.peer[3].bitTorrentApp.bitTorrentClient  DownloadComplete_Test:vector  ETV
attr source  BitTorrentClient_DownloadComplete_Test
attr title  "Descargas completas (prueba), vector"
vector 9  BasicTopology.peer[4].bitTorrentApp.bitTorrentClient  DownloadComplete_Test:vector  ETV
attr source  BitTorrentClient_DownloadComplete_Test
attr title  "Descargas completas (prueba), vector"
vector 11  BasicTopology.peer[5].bitTorrentApp.bitTorrentClient  DownloadComplete_Test:vector  ETV
attr source  BitTorrentClient_DownloadComplete_Test
attr title  "Descargas completas (prueba), vector"
vector 13  BasicTopology.peer[6].bitTorrentApp.bitTorrentClient  DownloadComplete_Test:vector  ETV
attr source  BitTorrentClient_DownloadComplete_Test
attr title  "Descargas completas (prueba), vector"
vector 15  BasicTopology.peer[7].bitTorrentApp.bitTorrentClient  DownloadComplete_Test:vector  ETV
attr source  BitTorrentClient_DownloadComplete_Test
attr title  "Descargas completas (prueba), vector"
vector 17  BasicTopology.peer[8].bitTorrentApp.bitTorrentClient  DownloadComplete_Test:vector  ETV
attr source  BitTorrentClient_DownloadComplete_Test
attr title  "Descargas completas (prueba), vector"
vector 19  BasicTopology.peer[9].bitTorrentApp.bitTorrentClient  DownloadComplete_Test:vector  ETV
attr source  BitTorrentClient_DownloadComplete_Test
attr title  "Descargas completas (prueba), vector"
vector 21  BasicTopology.peer[10].bitTorrentApp.bitTorrentClient  DownloadComplete_Test:vector  ETV
attr source  BitTorrentClient_DownloadComplete_Test
attr title  "Descargas completas (prueba), vector"
vector 23  BasicTopology.peer[11].bitTorrentApp.bitTorrentClient  DownloadComplete_Test:vector  ETV
attr source  BitTorrentClient_DownloadComplete_Test
attr title  "Descargas completas (prueba), vector"
vector 25  BasicTopology.peer[12].bitTorrentApp.bitTorrentClient  DownloadComplete_Test:vector  ETV
attr source  BitTorrentClient_DownloadComplete_Test
attr title  "Descargas completas (prueba), vector"
vector 27  BasicTopology.peer[13].bitTorrentApp.bitTorrentClient  DownloadComplete_Test:vector  ETV
attr source  BitTorrentClient_DownloadComplete_Test
attr title  "Descargas completas (prueba), vector"
vector 29  BasicTopology.peer[14].bitTorrentApp.bitTorrentClient  DownloadComplete_Test:vector  ETV
attr source  BitTorrentClient_DownloadComplete_Test
attr title  "Descargas completas (prueba), vector"
vector 31  BasicTopology.peer[15].bitTorrentApp.bitTorrentClient  DownloadComplete_Test:vector  ETV
attr source  BitTorrentClient_DownloadComplete_Test
attr title  "Descargas completas (prueba), vector"
vector 33  BasicTopology.peer[16].bitTorrentApp.bitTorrentClient  DownloadComplete_Test:vector  ETV
attr source  BitTorrentClient_DownloadComplete_Test
attr title  "Descargas completas (prueba), vector"
vector 35  BasicTopology.peer[17].bitTorrentApp.bitTorrentClient  DownloadComplete_Test:vector  ETV
attr source  BitTorrentClient_DownloadComplete_Test
attr title  "Descargas completas (prueba), vector"
vector 37  BasicTopology.peer[18].bitTorrentApp.bitTorrentClient  DownloadComplete_Test:vector  ETV
attr source  BitTorrentClient_DownloadComplete_Test
attr title  "Descargas completas (prueba), vector"
vector 39  BasicTopology.peer[19].bitTorrentApp.bitTorrentClient  DownloadComplete_Test:vector  ETV
attr source  BitTorrentClient_DownloadComplete_Test
attr title  "Descargas completas (prueba), vector"
vector 41  BasicTopology.peer[20].bitTorrentApp.bitTorrentClient  DownloadComplete_Test:vector  ETV
attr source  BitTorrentClient_DownloadComplete_Test
attr title  "Descargas completas (prueba), vector"
vector 43  BasicTopology.peer[21].bitTorrentApp.bitTorrentClient  DownloadComplete_Test:vector  ETV
attr source  BitTorrentClient_DownloadComplete_Test
attr title  "Descargas completas (prueba), vector"
vector 45  BasicTopology.peer[22].bitTorrentApp.bitTorrentClient  DownloadComplete_Test:vector  ETV
attr source  BitTorrentClient_DownloadComplete_Test
attr title  "Descargas completas (prueba), vector"
vector 47  BasicTopology.peer[23].bitTorrentApp.bitTorrentClient  DownloadComplete_Test:vector  ETV
attr source  BitTorrentClient_DownloadComplete_Test
attr title  "Descargas completas (prueba), vector"
vector 49  BasicTopology.peer[24].bitTorrentApp.bitTorrentClient  DownloadComplete_Test:vector  ETV
attr source  BitTorrentClient_DownloadComplete_Test
attr title  "Descargas completas (prueba), vector"
vector 833  BasicTopology.peer[0].bitTorrentApp.bitTorrentClient.contentManager_26  TotalBytesUploaded:vector  ETV
attr source  ContentManager_TotalBytesUploaded
attr title  "Total of Bytes Uploaded, vector"
attr unit  B
vector 928  BasicTopology.peer[12].bitTorrentApp.bitTorrentClient.contentManager_26  TotalBytesDownloaded:vector  ETV
attr source  ContentManager_TotalBytesDownloaded
attr title  "Total of Bytes Downloaded, vector"
attr unit  B
vector 920  BasicTopology.peer[11].bitTorrentApp.bitTorrentClient.contentManager_26  TotalBytesDownloaded:vector  ETV
attr source  ContentManager_TotalBytesDownloaded
attr title  "Total of Bytes Downloaded, vector"
attr unit  B
vector 840  BasicTopology.peer[1].bitTorrentApp.bitTorrentClient.contentManager_26  TotalBytesDownloaded:vector  ETV
attr source  ContentManager_TotalBytesDownloaded
attr title  "Total of Bytes Downloaded, vector"
attr unit  B
vector 839  BasicTopology.peer[1].bitTorrentApp.bitTorrentClient.contentManager_26  PiecesDownloaded:vector  ETV
attr source  ContentManager_PieceDownloaded
attr title  "Pieces Downloaded, vector"
vector 841  BasicTopology.peer[1].bitTorrentApp.bitTorrentClient.contentManager_26  TotalBytesUploaded:vector  ETV
attr source  ContentManager_TotalBytesUploaded
attr title  "Total of Bytes Uploaded, vector"
attr unit  B
vector 919  BasicTopology.peer[11].bitTorrentApp.bitTorrentClient.contentManager_26  PiecesDownloaded:vector  ETV
attr source  ContentManager_PieceDownloaded
attr title  "Pieces Downloaded, vector"
vector 921  BasicTopology.peer[11].bitTorrentApp.bitTorrentClient.contentManager_26  TotalBytesUploaded:vector  ETV
attr source  ContentManager_TotalBytesUploaded
attr title  "Total of Bytes Uploaded, vector"
attr unit  B
vector 856  BasicTopology.peer[3].bitTorrentApp.bitTorrentClient.contentManager_26  TotalBytesDownloaded:vector  ETV
attr source  ContentManager_TotalBytesDownloaded
attr title  "Total of Bytes Downloaded, vector"
attr unit  B
vector 1008  BasicTopology.peer[22].bitTorrentApp.bitTorrentClient.contentManager_26  TotalBytesDownloaded:vector  ETV
attr source  ContentManager_TotalBytesDownloaded
attr title  "Total of Bytes Downloaded, vector"
attr unit  B
vector 952  BasicTopology.peer[15].bitTorrentApp.bitTorrentClient.contentManager_26  TotalBytesDownloaded:vector  ETV
attr source  ContentManager_TotalBytesDownloaded
attr title  "Total of Bytes Downloaded, vector"
attr unit  B
vector 855  BasicTopology.peer[3].bitTorrentApp.bitTorrentClient.contentManager_26  PiecesDownloaded:vector  ETV
attr source  ContentManager_PieceDownloaded
attr title  "Pieces Downloaded, vector"
vector 857  BasicTopology.peer[3].bitTorrentApp.bitTorrentClient.contentManager_26  TotalBytesUploaded:vector  ETV
attr source  ContentManager_TotalBytesUploaded
attr title  "Total of Bytes Uploaded, vector"
attr unit  B
vector 880  BasicTopology.peer[6].bitTorrentApp.bitTorrentClient.contentManager_26  TotalBytesDownloaded:vector  ETV
attr source  ContentManager_TotalBytesDownloaded
attr title  "Total of Bytes Downloaded, vector"
attr unit  B
vector 944  BasicTopology.peer[14].bitTorrentApp.bitTorrentClient.contentManager_26  TotalBytesDownloaded:vector  ETV
attr source  ContentManager_TotalBytesDownloaded
attr title  "Total of Bytes Downloaded, vector"
attr unit  B
vector 864  BasicTopology.peer[4].bitTorrentApp.bitTorrentClient.contentManager_26  TotalBytesDownloaded:vector  ETV
attr source  ContentManager_TotalBytesDownloaded
attr title  "Total of Bytes Downloaded, vector"
attr unit  B
vector 936  BasicTopology.peer[13].bitTorrentApp.bitTorrentClient.contentManager_26  TotalBytesDownloaded:vector  ETV
attr source  ContentManager_TotalBytesDownloaded
attr title  "Total of Bytes Downloaded, vector"
attr unit  B
vector 912  BasicTopology.peer[10].bitTorrentApp.bitTorrentClient.contentManager_26  TotalBytesDownloaded:vector  ETV
attr source  ContentManager_TotalBytesDownloaded
attr title  "Total of Bytes Downloaded, vector"
attr unit  B
vector 896  BasicTopology.peer[8].bitTorrentApp.bitTorrentClient.contentManager_26  TotalBytesDownloaded:vector  ETV
attr source  ContentManager_TotalBytesDownloaded
attr title  "Total of Bytes Downloaded, vector"
attr unit  B
vector 943  BasicTopology.peer[14].bitTorrentApp.bitTorrentClient.contentManager_26  PiecesDownloaded:vector  ETV
attr source  ContentManager_PieceDownloaded
attr title  "Pieces Downloaded, vector"
vector 945  BasicTopology.peer[14].bitTorrentApp.bitTorrentClient.contentManager_26  TotalBytesUploaded:vector  ETV
attr source  ContentManager_TotalBytesUploaded
attr title  "Total of Bytes Uploaded, vector"
attr unit  B
vector 879  BasicTopology.peer[6].bitTorrentApp.bitTorrentClient.contentManager_26  PiecesDownloaded:vector  ETV
attr source  ContentManager_PieceDownloaded
attr title  "Pieces Downloaded, vector"
vector 881  BasicTopology.peer[6].bitTorrentApp.bitTorrentClient.contentManager_26  TotalBytesUploaded:vector  ETV
attr source  ContentManager_TotalBytesUploaded
attr title  "Total of Bytes Uploaded, vector"
attr unit  B
vector 1007  BasicTopology.peer[22].bitTorrentApp.bitTorrentClient.contentManager_26  PiecesDownloaded:vector  ETV
attr source  ContentManager_PieceDownloaded
attr title  "Pieces Downloaded, vector"
vector 1009  BasicTopology.peer[22].bitTorrentApp.bitTorrentClient.contentManager_26  TotalBytesUploaded:vector  ETV
attr source  ContentManager_TotalBytesUploaded
attr title  "Total of Bytes Uploaded, vector"
attr unit  B
vector 960  BasicTopology.peer[16].bitTorrentApp.bitTorrentClient.contentManager_26  TotalBytesDownloaded:vector  ETV
attr source  ContentManager_TotalBytesDownloaded
attr title  "Total of Bytes Downloaded, vector"
attr unit  B
vector 904  BasicTopology.peer[9].bitTorrentApp.bitTorrentClient.contentManager_26  TotalBytesDownloaded:vector  ETV
attr source  ContentManager_TotalBytesDownloaded
attr title  "Total of Bytes Downloaded, vector"
attr unit  B
vector 848  BasicTopology.peer[2].bitTorrentApp.bitTorrentClient.contentManager_26  TotalBytesDownloaded:vector  ETV
attr source  ContentManager_TotalBytesDownloaded
attr title  "Total of Bytes Downloaded, vector"
attr unit  B
vector 984  BasicTopology.peer[19].bitTorrentApp.bitTorrentClient.contentManager_26  TotalBytesDownloaded:vector  ETV
attr source  ContentManager_TotalBytesDownloaded
attr title  "Total of Bytes Downloaded, vector"
attr unit  B
vector 872  BasicTopology.peer[5].bitTorrentApp.bitTorrentClient.contentManager_26  TotalBytesDownloaded:vector  ETV
attr source  ContentManager_TotalBytesDownloaded
attr title  "Total of Bytes Downloaded, vector"
attr unit  B
vector 927  BasicTopology.peer[12].bitTorrentApp.bitTorrentClient.contentManager_26  PiecesDownloaded:vector  ETV
attr source  ContentManager_PieceDownloaded
attr title  "Pieces Downloaded, vector"
vector 929  BasicTopology.peer[12].bitTorrentApp.bitTorrentClient.contentManager_26  TotalBytesUploaded:vector  ETV
attr source  ContentManager_TotalBytesUploaded
attr title  "Total of Bytes Uploaded, vector"
attr unit  B
vector 935  BasicTopology.peer[13].bitTorrentApp.bitTorrentClient.contentManager_26  PiecesDownloaded:vector  ETV
attr source  ContentManager_PieceDownloaded
attr title  "Pieces Downloaded, vector"
vector 937  BasicTopology.peer[13].bitTorrentApp.bitTorrentClient.contentManager_26  TotalBytesUploaded:vector  ETV
attr source  ContentManager_TotalBytesUploaded
attr title  "Total of Bytes Uploaded, vector"
attr unit  B
vector 847  BasicTopology.peer[2].bitTorrentApp.bitTorrentClient.contentManager_26  PiecesDownloaded:vector  ETV
attr source  ContentManager_PieceDownloaded
attr title  "Pieces Downloaded, vector"
vector 871  BasicTopology.peer[5].bitTorrentApp.bitTorrentClient.contentManager_26  PiecesDownloaded:vector  ETV
attr source  ContentManager_PieceDownloaded
attr title  "Pieces Downloaded, vector"
vector 983  BasicTopology.peer[19].bitTorrentApp.bitTorrentClient.contentManager_26  PiecesDownloaded:vector  ETV
attr source  ContentManager_PieceDownloaded
attr title  "Pieces Downloaded, vector"
vector 976  BasicTopology.peer[18].bitTorrentApp.bitTorrentClient.contentManager_26  TotalBytesDownloaded:vector  ETV
attr source  ContentManager_TotalBytesDownloaded
attr title  "Total of Bytes Downloaded, vector"
attr unit  B
vector 992  BasicTopology.peer[20].bitTorrentApp.bitTorrentClient.contentManager_26  TotalBytesDownloaded:vector  ETV
attr source  ContentManager_TotalBytesDownloaded
attr title  "Total of Bytes Downloaded, vector"
attr unit  B
vector 1000  BasicTopology.peer[21].bitTorrentApp.bitTorrentClient.contentManager_26  TotalBytesDownloaded:vector  ETV
attr source  ContentManager_TotalBytesDownloaded
attr title  "Total of Bytes Downloaded, vector"
attr unit  B
vector 959  BasicTopology.peer[16].bitTorrentApp.bitTorrentClient.contentManager_26  PiecesDownloaded:vector  ETV
attr source  ContentManager_PieceDownloaded
attr title  "Pieces Downloaded, vector"
vector 961  BasicTopology.peer[16].bitTorrentApp.bitTorrentClient.contentManager_26  TotalBytesUploaded:vector  ETV
attr source  ContentManager_TotalBytesUploaded
attr title  "Total of Bytes Uploaded, vector"
attr unit  B
vector 911  BasicTopology.peer[10].bitTorrentApp.bitTorrentClient.contentManager_26  PiecesDownloaded:vector  ETV
attr source  ContentManager_PieceDownloaded
attr title  "Pieces Downloaded, vector"
vector 913  BasicTopology.peer[10].bitTorrentApp.bitTorrentClient.contentManager_26  TotalBytesUploaded:vector  ETV
attr source  ContentManager_TotalBytesUploaded
attr title  "Total of Bytes Uploaded, vector"
attr unit  B
vector 1016  BasicTopology.peer[23].bitTorrentApp.bitTorrentClient.contentManager_26  TotalBytesDownloaded:vector  ETV
attr source  ContentManager_TotalBytesDownloaded
attr title  "Total of Bytes Downloaded, vector"
attr unit  B
vector 873  BasicTopology.peer[5].bitTorrentApp.bitTorrentClient.contentManager_26  TotalBytesUploaded:vector  ETV
attr source  ContentManager_TotalBytesUploaded
attr title  "Total of Bytes Uploaded, vector"
attr unit  B
vector 1024  BasicTopology.peer[24].bitTorrentApp.bitTorrentClient.contentManager_26  TotalBytesDownloaded:vector  ETV
attr source  ContentManager_TotalBytesDownloaded
attr title  "Total of Bytes Downloaded, vector"
attr unit  B
vector 903  BasicTopology.peer[9].bitTorrentApp.bitTorrentClient.contentManager_26  PiecesDownloaded:vector  ETV
attr source  ContentManager_PieceDownloaded
attr title  "Pieces Downloaded, vector"
vector 951  BasicTopology.peer[15].bitTorrentApp.bitTorrentClient.contentManager_26  PiecesDownloaded:vector  ETV
attr source  ContentManager_PieceDownloaded
attr title  "Pieces Downloaded, vector"
vector 1023  BasicTopology.peer[24].bitTorrentApp.bitTorrentClient.contentManager_26  PiecesDownloaded:vector  ETV
attr source  ContentManager_PieceDownloaded
attr title  "Pieces Downloaded, vector"
vector 975  BasicTopology.peer[18].bitTorrentApp.bitTorrentClient.contentManager_26  PiecesDownloaded:vector  ETV
attr source  ContentManager_PieceDownloaded
attr title  "Pieces Downloaded, vector"
vector 888  BasicTopology.peer[7].bitTorrentApp.bitTorrentClient.contentManager_26  TotalBytesDownloaded:vector  ETV
attr source  ContentManager_TotalBytesDownloaded
attr title  "Total of Bytes Downloaded, vector"
attr unit  B
vector 991  BasicTopology.peer[20].bitTorrentApp.bitTorrentClient.contentManager_26  PiecesDownloaded:vector  ETV
attr source  ContentManager_PieceDownloaded
attr title  "Pieces Downloaded, vector"
vector 993  BasicTopology.peer[20].bitTorrentApp.bitTorrentClient.contentManager_26  TotalBytesUploaded:vector  ETV
attr source  ContentManager_TotalBytesUploaded
attr title  "Total of Bytes Uploaded, vector"
attr unit  B
vector 953  BasicTopology.peer[15].bitTorrentApp.bitTorrentClient.contentManager_26  TotalBytesUploaded:vector  ETV
attr source  ContentManager_TotalBytesUploaded
attr title  "Total of Bytes Uploaded, vector"
attr unit  B
vector 968  BasicTopology.peer[17].bitTorrentApp.bitTorrentClient.contentManager_26  TotalBytesDownloaded:vector  ETV
attr source  ContentManager_TotalBytesDownloaded
attr title  "Total of Bytes Downloaded, vector"
attr unit  B
vector 1015  BasicTopology.peer[23].bitTorrentApp.bitTorrentClient.contentManager_26  PiecesDownloaded:vector  ETV
attr source  ContentManager_PieceDownloaded
attr title  "Pieces Downloaded, vector"
vector 999  BasicTopology.peer[21].bitTorrentApp.bitTorrentClient.contentManager_26  PiecesDownloaded:vector  ETV
attr source  ContentManager_PieceDownloaded
attr title  "Pieces Downloaded, vector"
vector 849  BasicTopology.peer[2].bitTorrentApp.bitTorrentClient.contentManager_26  TotalBytesUploaded:vector  ETV
attr source  ContentManager_TotalBytesUploaded
attr title  "Total of Bytes Uploaded, vector"
attr unit  B
vector 967  BasicTopology.peer[17].bitTorrentApp.bitTorrentClient.contentManager_26  PiecesDownloaded:vector  ETV
attr source  ContentManager_PieceDownloaded
attr title  "Pieces Downloaded, vector"
vector 1001  BasicTopology.peer[21].bitTorrentApp.bitTorrentClient.contentManager_26  TotalBytesUploaded:vector  ETV
attr source  ContentManager_TotalBytesUploaded
attr title  "Total of Bytes Uploaded, vector"
attr unit  B
vector 895  BasicTopology.peer[8].bitTorrentApp.bitTorrentClient.contentManager_26  PiecesDownloaded:vector  ETV
attr source  ContentManager_PieceDownloaded
attr title  "Pieces Downloaded, vector"
vector 863  BasicTopology.peer[4].bitTorrentApp.bitTorrentClient.contentManager_26  PiecesDownloaded:vector  ETV
attr source  ContentManager_PieceDownloaded
attr title  "Pieces Downloaded, vector"
vector 865  BasicTopology.peer[4].bitTorrentApp.bitTorrentClient.contentManager_26  TotalBytesUploaded:vector  ETV
attr source  ContentManager_TotalBytesUploaded
attr title  "Total of Bytes Uploaded, vector"
attr unit  B
vector 1025  BasicTopology.peer[24].bitTorrentApp.bitTorrentClient.contentManager_26  TotalBytesUploaded:vector  ETV
attr source  ContentManager_TotalBytesUploaded
attr title  "Total of Bytes Uploaded, vector"
attr unit  B
vector 1017  BasicTopology.peer[23].bitTorrentApp.bitTorrentClient.contentManager_26  TotalBytesUploaded:vector  ETV
attr source  ContentManager_TotalBytesUploaded
attr title  "Total of Bytes Uploaded, vector"
attr unit  B
vector 887  BasicTopology.peer[7].bitTorrentApp.bitTorrentClient.contentManager_26  PiecesDownloaded:vector  ETV
attr source  ContentManager_PieceDownloaded
attr title  "Pieces Downloaded, vector"
vector 889  BasicTopology.peer[7].bitTorrentApp.bitTorrentClient.contentManager_26  TotalBytesUploaded:vector  ETV
attr source  ContentManager_TotalBytesUploaded
attr title  "Total of Bytes Uploaded, vector"
attr unit  B
vector 897  BasicTopology.peer[8].bitTorrentApp.bitTorrentClient.contentManager_26  TotalBytesUploaded:vector  ETV
attr source  ContentManager_TotalBytesUploaded
attr title  "Total of Bytes Uploaded, vector"
attr unit  B
vector 905  BasicTopology.peer[9].bitTorrentApp.bitTorrentClient.contentManager_26  TotalBytesUploaded:vector  ETV
attr source  ContentManager_TotalBytesUploaded
attr title  "Total of Bytes Uploaded, vector"
attr unit  B
vector 969  BasicTopology.peer[17].bitTorrentApp.bitTorrentClient.contentManager_26  TotalBytesUploaded:vector  ETV
attr source  ContentManager_TotalBytesUploaded
attr title  "Total of Bytes Uploaded, vector"
attr unit  B
3	85	36001	36001
3	37650762	36064.531581100382	36064.5315811
5	86	36001	36001
5	81068746	36305.298716169962	36305.29871617
7	87	36001	36001
7	62587311	36110.379867453434	36110.379867453
9	88	36001	36001
9	76321138	36140.032178201535	36140.032178202
11	89	36001	36001
11	72692891	36130.723541361598	36130.723541362
13	90	36001	36001
13	61946932	36109.068271823168	36109.068271823
15	91	36001	36001
15	79006991	36146.807613176705	36146.807613177
17	92	36001	36001
17	73753557	36133.178067485863	36133.178067486
19	93	36001	36001
19	70464994	36126.290083195648	36126.290083196
21	94	36001	36001
21	53439635	36091.457298562775	36091.457298563
23	95	36001	36001
23	61709250	36108.662683946341	36108.662683946
25	96	36001	36001
25	61422366	36108.038889852259	36108.038889852
27	97	36001	36001
27	80758373	36302.885133686047	36302.885133686
29	98	36001	36001
29	80001772	36149.784779315577	36149.784779316
31	99	36001	36001
31	76940301	36141.509690751754	36141.509690752
33	100	36001	36001
33	77186846	36142.073067354224	36142.073067354
35	101	36001	36001
35	72357034	36130.007886167451	36130.007886167
37	102	36001	36001
37	77806388	36143.732791923594	36143.732791924
39	103	36001	36001
39	78895177	36146.60587605662	36146.605876057
41	104	36001	36001
41	52710882	36090.012706006203	36090.012706006
43	105	36001	36001
43	45287690	36076.734224173112	36076.734224173
45	106	36001	36001
45	54295487	36093.154476608341	36093.154476608
47	107	36001	36001
47	81153011	36306.376745367498	36306.376745367
49	108	36001	36001
49	57097826	36099.224257877985	36099.224257878
833	99084	36001.0674289184	32768
833	100525	36001.068594504927	65536
833	101863	36001.069627111675	98304
833	102523	36001.070058206943	131072
833	125952	36001.091410756582	163840
833	127849	36001.093205550459	196608
833	129747	36001.094950461551	229376
833	129803	36001.095028678078	262144
833	143835	36001.1181423983	294912
833	144186	36001.119171874273	327680
833	284808	36001.574791681322	360448
833	285414	36001.575674800892	393216
833	288002	36001.580678945535	425984
833	290300	36001.583491392841	458752
833	310584	36001.610242898702	491520
833	311317	36001.611937172009	524288
833	311476	36001.612331917817	557056
833	311629	36001.612602901872	589824
833	314899	36001.618375752112	622592
833	320719	36001.640346803628	655360
833	320721	36001.640382855046	688128
833	321373	36001.642303055511	720896
833	330228	36001.656639004253	753664
833	330537	36001.656927869259	786432
833	330894	36001.657243276564	819200
833	332507	36001.65895597432	851968
833	332886	36001.659291580959	884736
833	336073	36001.663018731652	917504
833	336365	36001.663422351404	950272
833	337765	36001.665280175758	983040
833	532135	36002.821496196642	1015808
833	545731	36002.864871500961	1048576
833	565513	36002.931218063926	1081344
833	595437	36003.023734428368	1114112
833	623602	36003.092266960194	1146880
833	639369	36003.138547905758	1179648
833	657519	36003.190384814109	1212416
833	675272	36003.239099583275	1245184
833	698076	36003.53856576823	1277952
833	710456	36003.57944435815	1310720
833	724949	36003.628419963252	1343488
833	959796	36004.103898262458	1376256
833	960391	36004.104691197202	1409024
833	968656	36004.114307525275	1441792
833	969403	36004.115151184827	1474560
833	971481	36004.117737410426	1507328
833	972708	36004.119435359401	1540096
833	974606	36004.12143805424	1572864
833	977610	36004.12585642673	1605632
833	993977	36004.142795839586	1638400
833	994419	36004.143158205137	1671168
833	1142054	36004.489710980913	1703936
833	1142056	36004.491402707151	1736704
833	1146624	36004.500807469352	1769472
833	1165950	36004.516090791488	1802240
833	1255143	36005.030777491353	1835008
833	1255411	36005.039277928951	1867776
833	1255413	36005.041156534893	1900544
833	1255419	36005.062726769123	1933312
833	1255422	36005.06532432621	1966080
833	1255424	36005.066003344068	1998848
833	1257370	36005.095724682071	2031616
833	1270665	36005.140245895816	2064384
833	1620770	36006.14496250765	2097152
833	1651636	36006.23606603016	2129920
833	2066745	36007.280919364478	2162688
833	2168880	36007.546945840315	2195456
833	2216893	36007.656619492392	2228224
833	2243699	36007.730429097028	2260992
833	2470531	36008.577073102544	2293760
833	2571090	36008.859459908535	2326528
833	2625164	36008.952307821849	2359296
833	2894485	36009.448648756521	2392064
833	2975824	36009.56302210145	2424832
833	3041267	36009.647570225465	2457600
833	3082592	36009.717854328929	2490368
833	3137614	36009.814161612157	2523136
833	3162637	36009.974385948385	2555904
833	3426993	36010.40879452168	2588672
833	3445215	36010.436385092401	2621440
833	3450798	36010.445353849802	2654208
833	3683688	36010.902793603805	2686976
833	3769302	36011.024870065005	2719744
833	3844276	36011.131102769436	2752512
833	3907056	36011.2225676604	2785280
833	4174197	36011.657495811286	2818048
833	4230098	36011.757193869922	2850816
833	4284473	36011.836599222766	2883584
833	4428993	36012.120650768247	2916352
833	4491301	36012.204818694815	2949120
833	4609271	36012.36425998211	2981888
833	4700880	36012.495166294555	3014656
833	4750526	36012.565186662641	3047424
833	4772772	36012.597657942144	3080192
833	4816474	36012.665464664843	3112960
833	4838796	36012.698268166704	3145728
833	4891319	36012.790185831609	3178496
833	4922671	36012.833372062821	3211264
833	5258018	36013.385752045882	3244032
833	5911627	36014.538804846864	3276800
833	5972182	36014.622841206301	3309568
833	6011135	36014.674774109832	3342336
833	6054829	36014.734507546103	3375104
833	6119042	36014.824755026714	3407872
833	6225554	36014.987212539369	3440640
833	6677651	36015.813914486097	3473408
833	6712361	36015.863785969886	3506176
833	6718619	36015.872473149229	3538944
833	6753597	36015.920601010717	3571712
833	6818303	36016.007458150193	3604480
833	6872594	36016.082159627758	3637248
833	6914663	36016.139206480528	3670016
833	6935154	36016.1676026303	3702784
833	6987781	36016.231212448791	3735552
833	7629181	36017.211982662392	3768320
833	7744067	36017.363198536166	3801088
833	8326594	36018.381161689011	3833856
833	8352289	36018.421316825034	3866624
833	8951007	36019.276312830759	3899392
833	9028030	36019.376885480458	3932160
833	9072569	36019.442058756689	3964928
833	9129127	36019.512789994167	3997696
833	9141698	36019.527042452462	4030464
833	9853047	36020.578886602906	4063232
833	9907567	36020.6514726755	4096000
833	10460013	36021.630352630977	4128768
833	11136752	36022.726987441778	4161536
833	11770071	36023.731046126454	4194304
833	11818694	36023.801574681815	4227072
833	11880025	36023.89782679989	4259840
833	11881543	36023.899994589946	4292608
833	11884356	36023.905489853203	4325376
833	12024079	36024.116928339847	4358144
833	12067091	36024.192921395453	4390912
833	12537058	36024.985439717094	4423680
833	12582966	36025.05598166096	4456448
833	12637503	36025.132568004493	4489216
833	13387059	36026.266034625498	4521984
833	14035262	36027.261567639847	4554752
833	14121378	36027.397260012703	4587520
833	14194819	36027.520545646145	4620288
833	15246944	36029.348812555025	4653056
833	15305805	36029.442546376209	4685824
833	15342071	36029.498314829626	4718592
833	15409110	36029.598963280847	4751360
833	15442708	36029.648512879034	4784128
833	16486749	36031.380775728835	4816896
833	16768570	36031.831407205739	4849664
833	16782210	36031.8484962973	4882432
833	16782513	36031.848752347831	4915200
833	16894297	36031.9969254289	4947968
833	17296910	36032.537813637413	4980736
833	17568261	36032.938398329233	5013504
833	17656593	36033.074716163623	5046272
833	17709188	36033.15439906042	5079040
833	17732328	36033.188394477515	5111808
833	17782003	36033.263372982955	5144576
833	17792010	36033.278593456137	5177344
833	18520251	36034.441604044769	5210112
833	19637816	36036.330620821138	5242880
833	19868364	36036.709544816134	5275648
833	19939994	36036.812956672226	5308416
833	19981448	36036.875543431835	5341184
833	21789499	36039.598635827914	5373952
833	21792797	36039.603052327201	5406720
833	21793221	36039.603557049374	5439488
833	21799460	36039.613883488492	5472256
833	21808311	36039.627224009437	5505024
833	21822816	36039.649818916542	5537792
833	21823360	36039.650825553043	5570560
833	22085747	36040.01062633445	5603328
833	22161077	36040.111397018937	5636096
833	22237539	36040.21749861566	5668864
833	22926151	36041.318079160842	5701632
833	22965721	36041.374821326239	5734400
833	23059643	36041.544531428331	5767168
833	23139597	36041.667938402119	5799936
833	23690708	36042.498027229768	5832704
833	24374282	36043.652386837668	5865472
833	24470517	36043.781260782804	5898240
833	24956425	36044.54386430698	5931008
833	25002604	36044.608071119843	5963776
833	25088744	36044.749427641257	5996544
833	25130517	36044.819218649899	6029312
833	25701858	36045.67384175716	6062080
833	25728235	36045.752966744218	6094848
833	26020283	36046.143010209065	6127616
833	26033698	36046.170288907941	6160384
833	26062834	36046.224941337788	6193152
833	26073579	36046.244790992434	6225920
833	26080933	36046.258537141114	6258688
833	26081735	36046.260235944167	6291456
833	26081940	36046.260738088142	6324224
833	26082235	36046.261251703738	6356992
833	26083313	36046.263123731323	6389760
833	26085254	36046.265893003933	6422528
833	27826726	36049.018758523255	6455296
833	29179972	36051.097509097026	6488064
833	29259319	36051.191873454552	6520832
833	29327692	36051.288725229934	6553600
833	29345358	36051.314300563681	6586368
833	29389308	36051.379574358622	6619136