version 2
run Test-18-20200425-12:23:53-9435
attr configname Test
attr datetime 20200425-12:23:53
attr experiment "\"Simulation Test\""
attr inifile BasicConfig.ini
attr iterationvars ""
attr iterationvars2 $repetition=18
attr measurement "\"Peers: $peers, Rate: $rate\""
attr network BasicTopology
attr processid 9435
attr repetition 18
attr replication #18
attr resultdir results
attr runnumber 18
attr seedset 18

vector 3  BasicTopology.peer[1].bitTorrentApp.bitTorrentClient  DownloadComplete_Test:vector  ETV
attr source  BitTorrentClient_DownloadComplete_Test
attr title  "Descargas completas (prueba), vector"
vector 5  BasicTopology.peer[2].bitTorrentApp.bitTorrentClient  DownloadComplete_Test:vector  ETV
attr source  BitTorrentClient_DownloadComplete_Test
attr title  "Descargas completas (prueba), vector"
vector 7  BasicTopology.peer[3].bitTorrentApp.bitTorrentClient  DownloadComplete_Test:vector  ETV
attr source  BitTorrentClient_DownloadComplete_Test
attr title  "Descargas completas (prueba), vector"
vector 9  BasicTopology.peer[4].bitTorrentApp.bitTorrentClient  DownloadComplete_Test:vector  ETV
attr source  BitTorrentClient_DownloadComplete_Test
attr title  "Descargas completas (prueba), vector"
vector 11  BasicTopology.peer[5].bitTorrentApp.bitTorrentClient  DownloadComplete_Test:vector  ETV
attr source  BitTorrentClient_DownloadComplete_Test
attr title  "Descargas completas (prueba), vector"
vector 13  BasicTopology.peer[6].bitTorrentApp.bitTorrentClient  DownloadComplete_Test:vector  ETV
attr source  BitTorrentClient_DownloadComplete_Test
attr title  "Descargas completas (prueba), vector"
vector 15  BasicTopology.peer[7].bitTorrentApp.bitTorrentClient  DownloadComplete_Test:vector  ETV
attr source  BitTorrentClient_DownloadComplete_Test
attr title  "Descargas completas (prueba), vector"
vector 17  BasicTopology.peer[8].bitTorrentApp.bitTorrentClient  DownloadComplete_Test:vector  ETV
attr source  BitTorrentClient_DownloadComplete_Test
attr title  "Descargas completas (prueba), vector"
vector 19  BasicTopology.peer[9].bitTorrentApp.bitTorrentClient  DownloadComplete_Test:vector  ETV
attr source  BitTorrentClient_DownloadComplete_Test
attr title  "Descargas completas (prueba), vector"
vector 21  BasicTopology.peer[10].bitTorrentApp.bitTorrentClient  DownloadComplete_Test:vector  ETV
attr source  BitTorrentClient_DownloadComplete_Test
attr title  "Descargas completas (prueba), vector"
vector 23  BasicTopology.peer[11].bitTorrentApp.bitTorrentClient  DownloadComplete_Test:vector  ETV
attr source  BitTorrentClient_DownloadComplete_Test
attr title  "Descargas completas (prueba), vector"
vector 25  BasicTopology.peer[12].bitTorrentApp.bitTorrentClient  DownloadComplete_Test:vector  ETV
attr source  BitTorrentClient_DownloadComplete_Test
attr title  "Descargas completas (prueba), vector"
vector 27  BasicTopology.peer[13].bitTorrentApp.bitTorrentClient  DownloadComplete_Test:vector  ETV
attr source  BitTorrentClient_DownloadComplete_Test
attr title  "Descargas completas (prueba), vector"
vector 29  BasicTopology.peer[14].bitTorrentApp.bitTorrentClient  DownloadComplete_Test:vector  ETV
attr source  BitTorrentClient_DownloadComplete_Test
attr title  "Descargas completas (prueba), vector"
vector 31  BasicTopology.peer[15].bitTorrentApp.bitTorrentClient  DownloadComplete_Test:vector  ETV
attr source  BitTorrentClient_DownloadComplete_Test
attr title  "Descargas completas (prueba), vector"
vector 33  BasicTopology.peer[16].bitTorrentApp.bitTorrentClient  DownloadComplete_Test:vector  ETV
attr source  BitTorrentClient_DownloadComplete_Test
attr title  "Descargas completas (prueba), vector"
vector 35  BasicTopology.peer[17].bitTorrentApp.bitTorrentClient  DownloadComplete_Test:vector  ETV
attr source  BitTorrentClient_DownloadComplete_Test
attr title  "Descargas completas (prueba), vector"
vector 37  BasicTopology.peer[18].bitTorrentApp.bitTorrentClient  DownloadComplete_Test:vector  ETV
attr source  BitTorrentClient_DownloadComplete_Test
attr title  "Descargas completas (prueba), vector"
vector 39  BasicTopology.peer[19].bitTorrentApp.bitTorrentClient  DownloadComplete_Test:vector  ETV
attr source  BitTorrentClient_DownloadComplete_Test
attr title  "Descargas completas (prueba), vector"
vector 41  BasicTopology.peer[20].bitTorrentApp.bitTorrentClient  DownloadComplete_Test:vector  ETV
attr source  BitTorrentClient_DownloadComplete_Test
attr title  "Descargas completas (prueba), vector"
vector 43  BasicTopology.peer[21].bitTorrentApp.bitTorrentClient  DownloadComplete_Test:vector  ETV
attr source  BitTorrentClient_DownloadComplete_Test
attr title  "Descargas completas (prueba), vector"
vector 45  BasicTopology.peer[22].bitTorrentApp.bitTorrentClient  DownloadComplete_Test:vector  ETV
attr source  BitTorrentClient_DownloadComplete_Test
attr title  "Descargas completas (prueba), vector"
vector 47  BasicTopology.peer[23].bitTorrentApp.bitTorrentClient  DownloadComplete_Test:vector  ETV
attr source  BitTorrentClient_DownloadComplete_Test
attr title  "Descargas completas (prueba), vector"
vector 49  BasicTopology.peer[24].bitTorrentApp.bitTorrentClient  DownloadComplete_Test:vector  ETV
attr source  BitTorrentClient_DownloadComplete_Test
attr title  "Descargas completas (prueba), vector"
vector 833  BasicTopology.peer[0].bitTorrentApp.bitTorrentClient.contentManager_26  TotalBytesUploaded:vector  ETV
attr source  ContentManager_TotalBytesUploaded
attr title  "Total of Bytes Uploaded, vector"
attr unit  B
vector 1008  BasicTopology.peer[22].bitTorrentApp.bitTorrentClient.contentManager_26  TotalBytesDownloaded:vector  ETV
attr source  ContentManager_TotalBytesDownloaded
attr title  "Total of Bytes Downloaded, vector"
attr unit  B
vector 1007  BasicTopology.peer[22].bitTorrentApp.bitTorrentClient.contentManager_26  PiecesDownloaded:vector  ETV
attr source  ContentManager_PieceDownloaded
attr title  "Pieces Downloaded, vector"
vector 1009  BasicTopology.peer[22].bitTorrentApp.bitTorrentClient.contentManager_26  TotalBytesUploaded:vector  ETV
attr source  ContentManager_TotalBytesUploaded
attr title  "Total of Bytes Uploaded, vector"
attr unit  B
vector 968  BasicTopology.peer[17].bitTorrentApp.bitTorrentClient.contentManager_26  TotalBytesDownloaded:vector  ETV
attr source  ContentManager_TotalBytesDownloaded
attr title  "Total of Bytes Downloaded, vector"
attr unit  B
vector 888  BasicTopology.peer[7].bitTorrentApp.bitTorrentClient.contentManager_26  TotalBytesDownloaded:vector  ETV
attr source  ContentManager_TotalBytesDownloaded
attr title  "Total of Bytes Downloaded, vector"
attr unit  B
vector 936  BasicTopology.peer[13].bitTorrentApp.bitTorrentClient.contentManager_26  TotalBytesDownloaded:vector  ETV
attr source  ContentManager_TotalBytesDownloaded
attr title  "Total of Bytes Downloaded, vector"
attr unit  B
vector 960  BasicTopology.peer[16].bitTorrentApp.bitTorrentClient.contentManager_26  TotalBytesDownloaded:vector  ETV
attr source  ContentManager_TotalBytesDownloaded
attr title  "Total of Bytes Downloaded, vector"
attr unit  B
vector 967  BasicTopology.peer[17].bitTorrentApp.bitTorrentClient.contentManager_26  PiecesDownloaded:vector  ETV
attr source  ContentManager_PieceDownloaded
attr title  "Pieces Downloaded, vector"
vector 969  BasicTopology.peer[17].bitTorrentApp.bitTorrentClient.contentManager_26  TotalBytesUploaded:vector  ETV
attr source  ContentManager_TotalBytesUploaded
attr title  "Total of Bytes Uploaded, vector"
attr unit  B
vector 840  BasicTopology.peer[1].bitTorrentApp.bitTorrentClient.contentManager_26  TotalBytesDownloaded:vector  ETV
attr source  ContentManager_TotalBytesDownloaded
attr title  "Total of Bytes Downloaded, vector"
attr unit  B
vector 839  BasicTopology.peer[1].bitTorrentApp.bitTorrentClient.contentManager_26  PiecesDownloaded:vector  ETV
attr source  ContentManager_PieceDownloaded
attr title  "Pieces Downloaded, vector"
vector 841  BasicTopology.peer[1].bitTorrentApp.bitTorrentClient.contentManager_26  TotalBytesUploaded:vector  ETV
attr source  ContentManager_TotalBytesUploaded
attr title  "Total of Bytes Uploaded, vector"
attr unit  B
vector 856  BasicTopology.peer[3].bitTorrentApp.bitTorrentClient.contentManager_26  TotalBytesDownloaded:vector  ETV
attr source  ContentManager_TotalBytesDownloaded
attr title  "Total of Bytes Downloaded, vector"
attr unit  B
vector 1000  BasicTopology.peer[21].bitTorrentApp.bitTorrentClient.contentManager_26  TotalBytesDownloaded:vector  ETV
attr source  ContentManager_TotalBytesDownloaded
attr title  "Total of Bytes Downloaded, vector"
attr unit  B
vector 880  BasicTopology.peer[6].bitTorrentApp.bitTorrentClient.contentManager_26  TotalBytesDownloaded:vector  ETV
attr source  ContentManager_TotalBytesDownloaded
attr title  "Total of Bytes Downloaded, vector"
attr unit  B
vector 864  BasicTopology.peer[4].bitTorrentApp.bitTorrentClient.contentManager_26  TotalBytesDownloaded:vector  ETV
attr source  ContentManager_TotalBytesDownloaded
attr title  "Total of Bytes Downloaded, vector"
attr unit  B
vector 855  BasicTopology.peer[3].bitTorrentApp.bitTorrentClient.contentManager_26  PiecesDownloaded:vector  ETV
attr source  ContentManager_PieceDownloaded
attr title  "Pieces Downloaded, vector"
vector 857  BasicTopology.peer[3].bitTorrentApp.bitTorrentClient.contentManager_26  TotalBytesUploaded:vector  ETV
attr source  ContentManager_TotalBytesUploaded
attr title  "Total of Bytes Uploaded, vector"
attr unit  B
vector 887  BasicTopology.peer[7].bitTorrentApp.bitTorrentClient.contentManager_26  PiecesDownloaded:vector  ETV
attr source  ContentManager_PieceDownloaded
attr title  "Pieces Downloaded, vector"
vector 889  BasicTopology.peer[7].bitTorrentApp.bitTorrentClient.contentManager_26  TotalBytesUploaded:vector  ETV
attr source  ContentManager_TotalBytesUploaded
attr title  "Total of Bytes Uploaded, vector"
attr unit  B
vector 920  BasicTopology.peer[11].bitTorrentApp.bitTorrentClient.contentManager_26  TotalBytesDownloaded:vector  ETV
attr source  ContentManager_TotalBytesDownloaded
attr title  "Total of Bytes Downloaded, vector"
attr unit  B
vector 904  BasicTopology.peer[9].bitTorrentApp.bitTorrentClient.contentManager_26  TotalBytesDownloaded:vector  ETV
attr source  ContentManager_TotalBytesDownloaded
attr title  "Total of Bytes Downloaded, vector"
attr unit  B
vector 999  BasicTopology.peer[21].bitTorrentApp.bitTorrentClient.contentManager_26  PiecesDownloaded:vector  ETV
attr source  ContentManager_PieceDownloaded
attr title  "Pieces Downloaded, vector"
vector 1001  BasicTopology.peer[21].bitTorrentApp.bitTorrentClient.contentManager_26  TotalBytesUploaded:vector  ETV
attr source  ContentManager_TotalBytesUploaded
attr title  "Total of Bytes Uploaded, vector"
attr unit  B
vector 952  BasicTopology.peer[15].bitTorrentApp.bitTorrentClient.contentManager_26  TotalBytesDownloaded:vector  ETV
attr source  ContentManager_TotalBytesDownloaded
attr title  "Total of Bytes Downloaded, vector"
attr unit  B
vector 944  BasicTopology.peer[14].bitTorrentApp.bitTorrentClient.contentManager_26  TotalBytesDownloaded:vector  ETV
attr source  ContentManager_TotalBytesDownloaded
attr title  "Total of Bytes Downloaded, vector"
attr unit  B
vector 848  BasicTopology.peer[2].bitTorrentApp.bitTorrentClient.contentManager_26  TotalBytesDownloaded:vector  ETV
attr source  ContentManager_TotalBytesDownloaded
attr title  "Total of Bytes Downloaded, vector"
attr unit  B
vector 903  BasicTopology.peer[9].bitTorrentApp.bitTorrentClient.contentManager_26  PiecesDownloaded:vector  ETV
attr source  ContentManager_PieceDownloaded
attr title  "Pieces Downloaded, vector"
vector 912  BasicTopology.peer[10].bitTorrentApp.bitTorrentClient.contentManager_26  TotalBytesDownloaded:vector  ETV
attr source  ContentManager_TotalBytesDownloaded
attr title  "Total of Bytes Downloaded, vector"
attr unit  B
vector 879  BasicTopology.peer[6].bitTorrentApp.bitTorrentClient.contentManager_26  PiecesDownloaded:vector  ETV
attr source  ContentManager_PieceDownloaded
attr title  "Pieces Downloaded, vector"
vector 951  BasicTopology.peer[15].bitTorrentApp.bitTorrentClient.contentManager_26  PiecesDownloaded:vector  ETV
attr source  ContentManager_PieceDownloaded
attr title  "Pieces Downloaded, vector"
vector 1016  BasicTopology.peer[23].bitTorrentApp.bitTorrentClient.contentManager_26  TotalBytesDownloaded:vector  ETV
attr source  ContentManager_TotalBytesDownloaded
attr title  "Total of Bytes Downloaded, vector"
attr unit  B
vector 905  BasicTopology.peer[9].bitTorrentApp.bitTorrentClient.contentManager_26  TotalBytesUploaded:vector  ETV
attr source  ContentManager_TotalBytesUploaded
attr title  "Total of Bytes Uploaded, vector"
attr unit  B
vector 1024  BasicTopology.peer[24].bitTorrentApp.bitTorrentClient.contentManager_26  TotalBytesDownloaded:vector  ETV
attr source  ContentManager_TotalBytesDownloaded
attr title  "Total of Bytes Downloaded, vector"
attr unit  B
vector 911  BasicTopology.peer[10].bitTorrentApp.bitTorrentClient.contentManager_26  PiecesDownloaded:vector  ETV
attr source  ContentManager_PieceDownloaded
attr title  "Pieces Downloaded, vector"
vector 847  BasicTopology.peer[2].bitTorrentApp.bitTorrentClient.contentManager_26  PiecesDownloaded:vector  ETV
attr source  ContentManager_PieceDownloaded
attr title  "Pieces Downloaded, vector"
vector 919  BasicTopology.peer[11].bitTorrentApp.bitTorrentClient.contentManager_26  PiecesDownloaded:vector  ETV
attr source  ContentManager_PieceDownloaded
attr title  "Pieces Downloaded, vector"
vector 849  BasicTopology.peer[2].bitTorrentApp.bitTorrentClient.contentManager_26  TotalBytesUploaded:vector  ETV
attr source  ContentManager_TotalBytesUploaded
attr title  "Total of Bytes Uploaded, vector"
attr unit  B
vector 992  BasicTopology.peer[20].bitTorrentApp.bitTorrentClient.contentManager_26  TotalBytesDownloaded:vector  ETV
attr source  ContentManager_TotalBytesDownloaded
attr title  "Total of Bytes Downloaded, vector"
attr unit  B
vector 943  BasicTopology.peer[14].bitTorrentApp.bitTorrentClient.contentManager_26  PiecesDownloaded:vector  ETV
attr source  ContentManager_PieceDownloaded
attr title  "Pieces Downloaded, vector"
vector 872  BasicTopology.peer[5].bitTorrentApp.bitTorrentClient.contentManager_26  TotalBytesDownloaded:vector  ETV
attr source  ContentManager_TotalBytesDownloaded
attr title  "Total of Bytes Downloaded, vector"
attr unit  B
vector 959  BasicTopology.peer[16].bitTorrentApp.bitTorrentClient.contentManager_26  PiecesDownloaded:vector  ETV
attr source  ContentManager_PieceDownloaded
attr title  "Pieces Downloaded, vector"
vector 991  BasicTopology.peer[20].bitTorrentApp.bitTorrentClient.contentManager_26  PiecesDownloaded:vector  ETV
attr source  ContentManager_PieceDownloaded
attr title  "Pieces Downloaded, vector"
vector 993  BasicTopology.peer[20].bitTorrentApp.bitTorrentClient.contentManager_26  TotalBytesUploaded:vector  ETV
attr source  ContentManager_TotalBytesUploaded
attr title  "Total of Bytes Uploaded, vector"
attr unit  B
vector 921  BasicTopology.peer[11].bitTorrentApp.bitTorrentClient.contentManager_26  TotalBytesUploaded:vector  ETV
attr source  ContentManager_TotalBytesUploaded
attr title  "Total of Bytes Uploaded, vector"
attr unit  B
vector 1023  BasicTopology.peer[24].bitTorrentApp.bitTorrentClient.contentManager_26  PiecesDownloaded:vector  ETV
attr source  ContentManager_PieceDownloaded
attr title  "Pieces Downloaded, vector"
vector 1025  BasicTopology.peer[24].bitTorrentApp.bitTorrentClient.contentManager_26  TotalBytesUploaded:vector  ETV
attr source  ContentManager_TotalBytesUploaded
attr title  "Total of Bytes Uploaded, vector"
attr unit  B
vector 913  BasicTopology.peer[10].bitTorrentApp.bitTorrentClient.contentManager_26  TotalBytesUploaded:vector  ETV
attr source  ContentManager_TotalBytesUploaded
attr title  "Total of Bytes Uploaded, vector"
attr unit  B
vector 928  BasicTopology.peer[12].bitTorrentApp.bitTorrentClient.contentManager_26  TotalBytesDownloaded:vector  ETV
attr source  ContentManager_TotalBytesDownloaded
attr title  "Total of Bytes Downloaded, vector"
attr unit  B
vector 935  BasicTopology.peer[13].bitTorrentApp.bitTorrentClient.contentManager_26  PiecesDownloaded:vector  ETV
attr source  ContentManager_PieceDownloaded
attr title  "Pieces Downloaded, vector"
vector 896  BasicTopology.peer[8].bitTorrentApp.bitTorrentClient.contentManager_26  TotalBytesDownloaded:vector  ETV
attr source  ContentManager_TotalBytesDownloaded
attr title  "Total of Bytes Downloaded, vector"
attr unit  B
vector 871  BasicTopology.peer[5].bitTorrentApp.bitTorrentClient.contentManager_26  PiecesDownloaded:vector  ETV
attr source  ContentManager_PieceDownloaded
attr title  "Pieces Downloaded, vector"
vector 873  BasicTopology.peer[5].bitTorrentApp.bitTorrentClient.contentManager_26  TotalBytesUploaded:vector  ETV
attr source  ContentManager_TotalBytesUploaded
attr title  "Total of Bytes Uploaded, vector"
attr unit  B
vector 984  BasicTopology.peer[19].bitTorrentApp.bitTorrentClient.contentManager_26  TotalBytesDownloaded:vector  ETV
attr source  ContentManager_TotalBytesDownloaded
attr title  "Total of Bytes Downloaded, vector"
attr unit  B
vector 895  BasicTopology.peer[8].bitTorrentApp.bitTorrentClient.contentManager_26  PiecesDownloaded:vector  ETV
attr source  ContentManager_PieceDownloaded
attr title  "Pieces Downloaded, vector"
vector 976  BasicTopology.peer[18].bitTorrentApp.bitTorrentClient.contentManager_26  TotalBytesDownloaded:vector  ETV
attr source  ContentManager_TotalBytesDownloaded
attr title  "Total of Bytes Downloaded, vector"
attr unit  B
vector 863  BasicTopology.peer[4].bitTorrentApp.bitTorrentClient.contentManager_26  PiecesDownloaded:vector  ETV
attr source  ContentManager_PieceDownloaded
attr title  "Pieces Downloaded, vector"
vector 1015  BasicTopology.peer[23].bitTorrentApp.bitTorrentClient.contentManager_26  PiecesDownloaded:vector  ETV
attr source  ContentManager_PieceDownloaded
attr title  "Pieces Downloaded, vector"
vector 1017  BasicTopology.peer[23].bitTorrentApp.bitTorrentClient.contentManager_26  TotalBytesUploaded:vector  ETV
attr source  ContentManager_TotalBytesUploaded
attr title  "Total of Bytes Uploaded, vector"
attr unit  B
vector 975  BasicTopology.peer[18].bitTorrentApp.bitTorrentClient.contentManager_26  PiecesDownloaded:vector  ETV
attr source  ContentManager_PieceDownloaded
attr title  "Pieces Downloaded, vector"
vector 937  BasicTopology.peer[13].bitTorrentApp.bitTorrentClient.contentManager_26  TotalBytesUploaded:vector  ETV
attr source  ContentManager_TotalBytesUploaded
attr title  "Total of Bytes Uploaded, vector"
attr unit  B
vector 865  BasicTopology.peer[4].bitTorrentApp.bitTorrentClient.contentManager_26  TotalBytesUploaded:vector  ETV
attr source  ContentManager_TotalBytesUploaded
attr title  "Total of Bytes Uploaded, vector"
attr unit  B
vector 881  BasicTopology.peer[6].bitTorrentApp.bitTorrentClient.contentManager_26  TotalBytesUploaded:vector  ETV
attr source  ContentManager_TotalBytesUploaded
attr title  "Total of Bytes Uploaded, vector"
attr unit  B
vector 983  BasicTopology.peer[19].bitTorrentApp.bitTorrentClient.contentManager_26  PiecesDownloaded:vector  ETV
attr source  ContentManager_PieceDownloaded
attr title  "Pieces Downloaded, vector"
vector 985  BasicTopology.peer[19].bitTorrentApp.bitTorrentClient.contentManager_26  TotalBytesUploaded:vector  ETV
attr source  ContentManager_TotalBytesUploaded
attr title  "Total of Bytes Uploaded, vector"
attr unit  B
vector 927  BasicTopology.peer[12].bitTorrentApp.bitTorrentClient.contentManager_26  PiecesDownloaded:vector  ETV
attr source  ContentManager_PieceDownloaded
attr title  "Pieces Downloaded, vector"
vector 929  BasicTopology.peer[12].bitTorrentApp.bitTorrentClient.contentManager_26  TotalBytesUploaded:vector  ETV
attr source  ContentManager_TotalBytesUploaded
attr title  "Total of Bytes Uploaded, vector"
attr unit  B
vector 945  BasicTopology.peer[14].bitTorrentApp.bitTorrentClient.contentManager_26  TotalBytesUploaded:vector  ETV
attr source  ContentManager_TotalBytesUploaded
attr title  "Total of Bytes Uploaded, vector"
attr unit  B
3	85	36001	36001
3	75482458	36145.059311129048	36145.059311129
5	86	36001	36001
5	37392042	36064.878185006268	36064.878185006
7	87	36001	36001
7	72538029	36137.178700794814	36137.178700795
9	88	36001	36001
9	67203428	36123.682547269745	36123.68254727
11	89	36001	36001
11	66257381	36121.407530495854	36121.407530496
13	90	36001	36001
13	73945636	36140.301724366382	36140.301724366
15	91	36001	36001
15	67817476	36125.327750387525	36125.327750388
17	92	36001	36001
17	70985219	36132.781771027845	36132.781771028
19	93	36001	36001
19	71694462	36134.557752549482	36134.557752549
21	94	36001	36001
21	54184110	36096.397566431614	36096.397566432
23	95	36001	36001
23	55284357	36098.682584052885	36098.682584053
25	96	36001	36001
25	60775301	36110.171792814304	36110.171792814
27	97	36001	36001
27	76427637	36148.618512642208	36148.618512642
29	98	36001	36001
29	76972811	36155.179223167097	36155.179223167
31	99	36001	36001
31	70368223	36130.77207960944	36130.772079609
33	100	36001	36001
33	77542070	36160.387743207348	36160.387743207
35	101	36001	36001
35	71957431	36135.235630546999	36135.235630547
37	102	36001	36001
37	76083823	36146.620510794931	36146.620510795
39	103	36001	36001
39	68196783	36126.069160055718	36126.069160056
41	104	36001	36001
41	57628676	36103.764830542611	36103.764830543
43	105	36001	36001
43	75912355	36146.183936734173	36146.183936734
45	106	36001	36001
45	49262019	36086.095563258214	36086.095563258
47	107	36001	36001
47	67316348	36123.947625374526	36123.947625375
49	108	36001	36001
49	52213104	36092.353296869158	36092.353296869
833	270686	36001.546947053829	32768
833	289482	36001.565708967632	65536
833	298674	36001.576376790484	98304
833	302887	36001.585015354287	131072
833	304785	36001.607948387174	163840
833	304787	36001.610283962155	196608
833	304817	36001.628133683839	229376
833	304819	36001.634925675281	262144
833	304840	36001.64672391597	294912
833	304842	36001.647031139982	327680
833	480120	36002.593693044515	360448
833	502085	36002.619729759983	393216
833	507918	36002.630068533638	425984
833	521820	36002.661577710514	458752
833	521927	36002.661866607882	491520
833	525664	36002.672500892468	524288
833	528986	36002.679745344808	557056
833	531042	36002.686258203058	589824
833	531442	36002.686982614569	622592
833	534405	36002.697766932802	655360
833	536031	36002.701608395613	688128
833	542003	36002.718836945448	720896
833	543715	36002.723488832884	753664
833	545546	36002.730714944462	786432
833	545555	36002.730740113693	819200
833	545829	36002.731555758299	851968
833	553422	36002.754099803953	884736
833	553574	36002.754430060373	917504
833	554040	36002.756321733009	950272
833	554473	36002.757810316932	983040
833	554553	36002.757975226422	1015808
833	560657	36002.777356789448	1048576
833	583835	36002.85283475952	1081344
833	600921	36002.912560063135	1114112
833	624471	36002.991182556438	1146880
833	665962	36003.091268199172	1179648
833	672293	36003.109802466877	1212416
833	675924	36003.120447963446	1245184
833	676067	36003.121004529578	1277952
833	676346	36003.121526953864	1310720
833	677157	36003.124244689414	1343488
833	678750	36003.128751463708	1376256
833	681593	36003.136303872045	1409024
833	684299	36003.142666278475	1441792
833	688236	36003.152231064033	1474560
833	688438	36003.152652574853	1507328
833	714490	36003.221705187333	1540096
833	743334	36003.292148558742	1572864
833	1210752	36004.349806052662	1605632
833	1232677	36004.421924254896	1638400
833	1249617	36004.474977898607	1671168
833	1342311	36004.59187498612	1703936
833	1435006	36004.739356007413	1736704
833	1819422	36005.670720451811	1769472
833	1849598	36005.71776294484	1802240
833	1858959	36005.732542290197	1835008
833	1866948	36005.754459970149	1867776
833	1877338	36005.788105570417	1900544
833	1893782	36005.823417798103	1933312
833	1914414	36005.856589948144	1966080
833	2236454	36006.745742893706	1998848
833	2274235	36006.847085058966	2031616
833	2301356	36006.890159417377	2064384
833	2304373	36006.894650377248	2097152
833	2314329	36006.911074177509	2129920
833	2322919	36006.924511136747	2162688
833	2332059	36006.938419147807	2195456
833	2332559	36006.939109138843	2228224
833	2362781	36006.983372953811	2260992
833	2450305	36007.093189319947	2293760
833	2473320	36007.154132331543	2326528
833	2477942	36007.168839008189	2359296
833	2815362	36007.830425411168	2392064
833	2831679	36007.890210231879	2424832
833	2848920	36007.954159239718	2457600
833	2863789	36008.011575724437	2490368
833	2896539	36008.073448765232	2523136
833	2936198	36008.148076865529	2555904
833	2958477	36008.213294319294	2588672
833	2984942	36008.279580489893	2621440
833	3004071	36008.334598588893	2654208
833	3024855	36008.396095516678	2686976
833	3047100	36008.461535236207	2719744
833	3105631	36008.590724647977	2752512
833	3286960	36009.141102071565	2785280
833	3356760	36009.244620530261	2818048
833	3875780	36010.199622770065	2850816
833	3896223	36010.228206816459	2883584
833	3972431	36010.336998285152	2916352
833	4032515	36010.450978617552	2949120
833	4173931	36010.701517601307	2981888
833	4241492	36010.813660970837	3014656
833	4442420	36011.261711208661	3047424
833	4484521	36011.328672666366	3080192
833	4505333	36011.364052936612	3112960
833	4651216	36011.61966655157	3145728
833	4703572	36011.750998676481	3178496
833	4797860	36011.925285915813	3211264
833	4867739	36012.033611167309	3244032
833	4939696	36012.142700528097	3276800
833	4979607	36012.206428988789	3309568
833	5066837	36012.398081945613	3342336
833	5092978	36012.440389235127	3375104
833	5100013	36012.452661169655	3407872
833	5107980	36012.465621727813	3440640
833	5141091	36012.514458582769	3473408
833	5145107	36012.520477298652	3506176
833	5849533	36013.598713845144	3538944
833	5870019	36013.629556823443	3571712
833	6408605	36014.645287374289	3604480
833	6422998	36014.670312543827	3637248
833	6439110	36014.696517003846	3670016
833	6452660	36014.718855826622	3702784
833	6483044	36014.788425683296	3735552
833	6491108	36014.83547966682	3768320
833	6491320	36014.835834238617	3801088
833	6507437	36014.893305650309	3833856
833	6575882	36014.995637659983	3866624
833	6977300	36015.807420035648	3899392
833	7009333	36015.864175816852	3932160
833	7104649	36016.072754854762	3964928
833	7675915	36016.898519358072	3997696
833	7693587	36016.925508825784	4030464
833	7715691	36016.959182938518	4063232
833	7875931	36017.190712204738	4096000
833	8540177	36018.307315119328	4128768
833	9530451	36020.029005528991	4161536
833	10026324	36021.110503018295	4194304
833	10034155	36021.12062982863	4227072
833	10034221	36021.120813033752	4259840
833	10075587	36021.184226328468	4292608
833	10122416	36021.260900071621	4325376
833	10162680	36021.323858157827	4358144
833	10199652	36021.3794189359	4390912
833	10252201	36021.467591490624	4423680
833	10325681	36021.56919229245	4456448
833	10373691	36021.629441236007	4489216
833	10374643	36021.630627849311	4521984
833	10412986	36021.685377454839	4554752
833	10449200	36021.737752596708	4587520
833	11118486	36022.71818237221	4620288
833	11176286	36022.794879433179	4653056
833	11216891	36022.85251855657	4685824
833	11265067	36022.916883612541	4718592
833	11304948	36022.969505809159	4751360
833	11361942	36023.046811614264	4784128
833	11413231	36023.118671418882	4816896
833	11580910	36023.456610165299	4849664
833	11818378	36023.807800262868	4882432
833	12011130	36024.16741154046	4915200
833	12018041	36024.176373578746	4947968
833	12047662	36024.215176947965	4980736
833	12095264	36024.274223710534	5013504
833	12104573	36024.289195554789	5046272
833	12744079	36025.33882511549	5079040
833	12792877	36025.424122435274	5111808
833	12824199	36025.504260276719	5144576
833	12854112	36025.571081941538	5177344
833	12869544	36025.596434127264	5210112
833	13402851	36026.604174217598	5242880
833	14289891	36028.102440753377	5275648
833	14357164	36028.204944595904	5308416
833	14434141	36028.319327098923	5341184
833	15020153	36029.433359767307	5373952
833	15077404	36029.520727482804	5406720
833	15145253	36029.645365866043	5439488
833	15708010	36030.619873646821	5472256
833	15761713	36030.696417076315	5505024
833	15784991	36030.727883260281	5537792
833	15790953	36030.735697020136	5570560
833	15864072	36030.833560631789	5603328
833	15900283	36030.882396174333	5636096
833	15953048	36030.957682738754	5668864
833	16326616	36031.552004414048	5701632
833	16327044	36031.552778055492	5734400
833	16327174	36031.552979408806	5767168
833	16327417	36031.553259381879	5799936
833	16327576	36031.553557562346	5832704
833	16329188	36031.555241862048	5865472
833	16337300	36031.565826943716	5898240
833	16353262	36031.58730844476	5931008
833	16354445	36031.588953808634	5963776
833	16369086	36031.609199951293	5996544
833	16573748	36031.903400180287	6029312
833	16574386	36031.904300429954	6062080
833	16581855	36031.91495818969	6094848
833	16582194	36031.915497778108	6127616
833	16582499	36031.915974667361	6160384
833	16582644	36031.916253322119	6193152
833	16585725	36031.921228782217	6225920
833	16593772	36031.933475709782	6258688
833	16594178	36031.933974825529	6291456
833	16598495	36031.93927561413	6324224
833	16701501	36032.102577337676	6356992
833	16770203	36032.251559922661	6389760
833	16861059	36032.443003625649	6422528
833	16953877	36032.575087511545	6455296
833	17099773	36032.784794434143	6488064
833	17176485	36032.890363576128	6520832
833	17618601	36033.65164668932	6553600
833	17795247	36034.014733710115	6586368
833	18210559	36034.741970067856	6619136
833	18917780	36035.895538103377	6651904
833	18986279	36035.995272877231	6684672
833	19057386	36036.103391860901	6717440
833	19201588	36036.304725728085	6750208
833	19237881	36036.372211192292	6782976
833	19318173	36036.509737759972	6815744
833	19366138	36036.587327283304	6848512
833	19432178	36036.686474725774	6881280
833	19825507	36037.296612710024	6914048
833	20156652	36037.780483214691	6946816
833	20205017	36037.84699341577	6979584