version 2
run Test-19-20200526-12:16:00-5336
attr configname Test
attr datetime 20200526-12:16:00
attr experiment "\"Simulation Test\""
attr inifile BasicConfig.ini
attr iterationvars ""
attr iterationvars2 $repetition=19
attr measurement "\"Peers: $peers, Rate: $rate\""
attr network BasicTopology
attr processid 5336
attr repetition 19
attr replication #19
attr resultdir results
attr runnumber 19
attr seedset 19

vector 3  BasicTopology.peer[1].bitTorrentApp.bitTorrentClient  DownloadComplete_Test:vector  ETV
attr source  BitTorrentClient_DownloadComplete_Test
attr title  "Descargas completas (prueba), vector"
vector 5  BasicTopology.peer[2].bitTorrentApp.bitTorrentClient  DownloadComplete_Test:vector  ETV
attr source  BitTorrentClient_DownloadComplete_Test
attr title  "Descargas completas (prueba), vector"
vector 7  BasicTopology.peer[3].bitTorrentApp.bitTorrentClient  DownloadComplete_Test:vector  ETV
attr source  BitTorrentClient_DownloadComplete_Test
attr title  "Descargas completas (prueba), vector"
vector 9  BasicTopology.peer[4].bitTorrentApp.bitTorrentClient  DownloadComplete_Test:vector  ETV
attr source  BitTorrentClient_DownloadComplete_Test
attr title  "Descargas completas (prueba), vector"
vector 11  BasicTopology.peer[5].bitTorrentApp.bitTorrentClient  DownloadComplete_Test:vector  ETV
attr source  BitTorrentClient_DownloadComplete_Test
attr title  "Descargas completas (prueba), vector"
vector 13  BasicTopology.peer[6].bitTorrentApp.bitTorrentClient  DownloadComplete_Test:vector  ETV
attr source  BitTorrentClient_DownloadComplete_Test
attr title  "Descargas completas (prueba), vector"
vector 15  BasicTopology.peer[7].bitTorrentApp.bitTorrentClient  DownloadComplete_Test:vector  ETV
attr source  BitTorrentClient_DownloadComplete_Test
attr title  "Descargas completas (prueba), vector"
vector 17  BasicTopology.peer[8].bitTorrentApp.bitTorrentClient  DownloadComplete_Test:vector  ETV
attr source  BitTorrentClient_DownloadComplete_Test
attr title  "Descargas completas (prueba), vector"
vector 19  BasicTopology.peer[9].bitTorrentApp.bitTorrentClient  DownloadComplete_Test:vector  ETV
attr source  BitTorrentClient_DownloadComplete_Test
attr title  "Descargas completas (prueba), vector"
vector 21  BasicTopology.peer[10].bitTorrentApp.bitTorrentClient  DownloadComplete_Test:vector  ETV
attr source  BitTorrentClient_DownloadComplete_Test
attr title  "Descargas completas (prueba), vector"
vector 23  BasicTopology.peer[11].bitTorrentApp.bitTorrentClient  DownloadComplete_Test:vector  ETV
attr source  BitTorrentClient_DownloadComplete_Test
attr title  "Descargas completas (prueba), vector"
vector 25  BasicTopology.peer[12].bitTorrentApp.bitTorrentClient  DownloadComplete_Test:vector  ETV
attr source  BitTorrentClient_DownloadComplete_Test
attr title  "Descargas completas (prueba), vector"
vector 27  BasicTopology.peer[13].bitTorrentApp.bitTorrentClient  DownloadComplete_Test:vector  ETV
attr source  BitTorrentClient_DownloadComplete_Test
attr title  "Descargas completas (prueba), vector"
vector 29  BasicTopology.peer[14].bitTorrentApp.bitTorrentClient  DownloadComplete_Test:vector  ETV
attr source  BitTorrentClient_DownloadComplete_Test
attr title  "Descargas completas (prueba), vector"
vector 31  BasicTopology.peer[15].bitTorrentApp.bitTorrentClient  DownloadComplete_Test:vector  ETV
attr source  BitTorrentClient_DownloadComplete_Test
attr title  "Descargas completas (prueba), vector"
vector 33  BasicTopology.peer[16].bitTorrentApp.bitTorrentClient  DownloadComplete_Test:vector  ETV
attr source  BitTorrentClient_DownloadComplete_Test
attr title  "Descargas completas (prueba), vector"
vector 35  BasicTopology.peer[17].bitTorrentApp.bitTorrentClient  DownloadComplete_Test:vector  ETV
attr source  BitTorrentClient_DownloadComplete_Test
attr title  "Descargas completas (prueba), vector"
vector 37  BasicTopology.peer[18].bitTorrentApp.bitTorrentClient  DownloadComplete_Test:vector  ETV
attr source  BitTorrentClient_DownloadComplete_Test
attr title  "Descargas completas (prueba), vector"
vector 39  BasicTopology.peer[19].bitTorrentApp.bitTorrentClient  DownloadComplete_Test:vector  ETV
attr source  BitTorrentClient_DownloadComplete_Test
attr title  "Descargas completas (prueba), vector"
vector 41  BasicTopology.peer[20].bitTorrentApp.bitTorrentClient  DownloadComplete_Test:vector  ETV
attr source  BitTorrentClient_DownloadComplete_Test
attr title  "Descargas completas (prueba), vector"
vector 43  BasicTopology.peer[21].bitTorrentApp.bitTorrentClient  DownloadComplete_Test:vector  ETV
attr source  BitTorrentClient_DownloadComplete_Test
attr title  "Descargas completas (prueba), vector"
vector 45  BasicTopology.peer[22].bitTorrentApp.bitTorrentClient  DownloadComplete_Test:vector  ETV
attr source  BitTorrentClient_DownloadComplete_Test
attr title  "Descargas completas (prueba), vector"
vector 47  BasicTopology.peer[23].bitTorrentApp.bitTorrentClient  DownloadComplete_Test:vector  ETV
attr source  BitTorrentClient_DownloadComplete_Test
attr title  "Descargas completas (prueba), vector"
vector 49  BasicTopology.peer[24].bitTorrentApp.bitTorrentClient  DownloadComplete_Test:vector  ETV
attr source  BitTorrentClient_DownloadComplete_Test
attr title  "Descargas completas (prueba), vector"
vector 833  BasicTopology.peer[0].bitTorrentApp.bitTorrentClient.contentManager_26  TotalBytesUploaded:vector  ETV
attr source  ContentManager_TotalBytesUploaded
attr title  "Total of Bytes Uploaded, vector"
attr unit  B
vector 840  BasicTopology.peer[1].bitTorrentApp.bitTorrentClient.contentManager_26  TotalBytesDownloaded:vector  ETV
attr source  ContentManager_TotalBytesDownloaded
attr title  "Total of Bytes Downloaded, vector"
attr unit  B
vector 928  BasicTopology.peer[12].bitTorrentApp.bitTorrentClient.contentManager_26  TotalBytesDownloaded:vector  ETV
attr source  ContentManager_TotalBytesDownloaded
attr title  "Total of Bytes Downloaded, vector"
attr unit  B
vector 839  BasicTopology.peer[1].bitTorrentApp.bitTorrentClient.contentManager_26  PiecesDownloaded:vector  ETV
attr source  ContentManager_PieceDownloaded
attr title  "Pieces Downloaded, vector"
vector 841  BasicTopology.peer[1].bitTorrentApp.bitTorrentClient.contentManager_26  TotalBytesUploaded:vector  ETV
attr source  ContentManager_TotalBytesUploaded
attr title  "Total of Bytes Uploaded, vector"
attr unit  B
vector 880  BasicTopology.peer[6].bitTorrentApp.bitTorrentClient.contentManager_26  TotalBytesDownloaded:vector  ETV
attr source  ContentManager_TotalBytesDownloaded
attr title  "Total of Bytes Downloaded, vector"
attr unit  B
vector 912  BasicTopology.peer[10].bitTorrentApp.bitTorrentClient.contentManager_26  TotalBytesDownloaded:vector  ETV
attr source  ContentManager_TotalBytesDownloaded
attr title  "Total of Bytes Downloaded, vector"
attr unit  B
vector 864  BasicTopology.peer[4].bitTorrentApp.bitTorrentClient.contentManager_26  TotalBytesDownloaded:vector  ETV
attr source  ContentManager_TotalBytesDownloaded
attr title  "Total of Bytes Downloaded, vector"
attr unit  B
vector 848  BasicTopology.peer[2].bitTorrentApp.bitTorrentClient.contentManager_26  TotalBytesDownloaded:vector  ETV
attr source  ContentManager_TotalBytesDownloaded
attr title  "Total of Bytes Downloaded, vector"
attr unit  B
vector 856  BasicTopology.peer[3].bitTorrentApp.bitTorrentClient.contentManager_26  TotalBytesDownloaded:vector  ETV
attr source  ContentManager_TotalBytesDownloaded
attr title  "Total of Bytes Downloaded, vector"
attr unit  B
vector 847  BasicTopology.peer[2].bitTorrentApp.bitTorrentClient.contentManager_26  PiecesDownloaded:vector  ETV
attr source  ContentManager_PieceDownloaded
attr title  "Pieces Downloaded, vector"
vector 849  BasicTopology.peer[2].bitTorrentApp.bitTorrentClient.contentManager_26  TotalBytesUploaded:vector  ETV
attr source  ContentManager_TotalBytesUploaded
attr title  "Total of Bytes Uploaded, vector"
attr unit  B
vector 976  BasicTopology.peer[18].bitTorrentApp.bitTorrentClient.contentManager_26  TotalBytesDownloaded:vector  ETV
attr source  ContentManager_TotalBytesDownloaded
attr title  "Total of Bytes Downloaded, vector"
attr unit  B
vector 911  BasicTopology.peer[10].bitTorrentApp.bitTorrentClient.contentManager_26  PiecesDownloaded:vector  ETV
attr source  ContentManager_PieceDownloaded
attr title  "Pieces Downloaded, vector"
vector 913  BasicTopology.peer[10].bitTorrentApp.bitTorrentClient.contentManager_26  TotalBytesUploaded:vector  ETV
attr source  ContentManager_TotalBytesUploaded
attr title  "Total of Bytes Uploaded, vector"
attr unit  B
vector 992  BasicTopology.peer[20].bitTorrentApp.bitTorrentClient.contentManager_26  TotalBytesDownloaded:vector  ETV
attr source  ContentManager_TotalBytesDownloaded
attr title  "Total of Bytes Downloaded, vector"
attr unit  B
vector 872  BasicTopology.peer[5].bitTorrentApp.bitTorrentClient.contentManager_26  TotalBytesDownloaded:vector  ETV
attr source  ContentManager_TotalBytesDownloaded
attr title  "Total of Bytes Downloaded, vector"
attr unit  B
vector 944  BasicTopology.peer[14].bitTorrentApp.bitTorrentClient.contentManager_26  TotalBytesDownloaded:vector  ETV
attr source  ContentManager_TotalBytesDownloaded
attr title  "Total of Bytes Downloaded, vector"
attr unit  B
vector 879  BasicTopology.peer[6].bitTorrentApp.bitTorrentClient.contentManager_26  PiecesDownloaded:vector  ETV
attr source  ContentManager_PieceDownloaded
attr title  "Pieces Downloaded, vector"
vector 881  BasicTopology.peer[6].bitTorrentApp.bitTorrentClient.contentManager_26  TotalBytesUploaded:vector  ETV
attr source  ContentManager_TotalBytesUploaded
attr title  "Total of Bytes Uploaded, vector"
attr unit  B
vector 991  BasicTopology.peer[20].bitTorrentApp.bitTorrentClient.contentManager_26  PiecesDownloaded:vector  ETV
attr source  ContentManager_PieceDownloaded
attr title  "Pieces Downloaded, vector"
vector 993  BasicTopology.peer[20].bitTorrentApp.bitTorrentClient.contentManager_26  TotalBytesUploaded:vector  ETV
attr source  ContentManager_TotalBytesUploaded
attr title  "Total of Bytes Uploaded, vector"
attr unit  B
vector 1016  BasicTopology.peer[23].bitTorrentApp.bitTorrentClient.contentManager_26  TotalBytesDownloaded:vector  ETV
attr source  ContentManager_TotalBytesDownloaded
attr title  "Total of Bytes Downloaded, vector"
attr unit  B
vector 927  BasicTopology.peer[12].bitTorrentApp.bitTorrentClient.contentManager_26  PiecesDownloaded:vector  ETV
attr source  ContentManager_PieceDownloaded
attr title  "Pieces Downloaded, vector"
vector 929  BasicTopology.peer[12].bitTorrentApp.bitTorrentClient.contentManager_26  TotalBytesUploaded:vector  ETV
attr source  ContentManager_TotalBytesUploaded
attr title  "Total of Bytes Uploaded, vector"
attr unit  B
vector 888  BasicTopology.peer[7].bitTorrentApp.bitTorrentClient.contentManager_26  TotalBytesDownloaded:vector  ETV
attr source  ContentManager_TotalBytesDownloaded
attr title  "Total of Bytes Downloaded, vector"
attr unit  B
vector 904  BasicTopology.peer[9].bitTorrentApp.bitTorrentClient.contentManager_26  TotalBytesDownloaded:vector  ETV
attr source  ContentManager_TotalBytesDownloaded
attr title  "Total of Bytes Downloaded, vector"
attr unit  B
vector 920  BasicTopology.peer[11].bitTorrentApp.bitTorrentClient.contentManager_26  TotalBytesDownloaded:vector  ETV
attr source  ContentManager_TotalBytesDownloaded
attr title  "Total of Bytes Downloaded, vector"
attr unit  B
vector 960  BasicTopology.peer[16].bitTorrentApp.bitTorrentClient.contentManager_26  TotalBytesDownloaded:vector  ETV
attr source  ContentManager_TotalBytesDownloaded
attr title  "Total of Bytes Downloaded, vector"
attr unit  B
vector 887  BasicTopology.peer[7].bitTorrentApp.bitTorrentClient.contentManager_26  PiecesDownloaded:vector  ETV
attr source  ContentManager_PieceDownloaded
attr title  "Pieces Downloaded, vector"
vector 889  BasicTopology.peer[7].bitTorrentApp.bitTorrentClient.contentManager_26  TotalBytesUploaded:vector  ETV
attr source  ContentManager_TotalBytesUploaded
attr title  "Total of Bytes Uploaded, vector"
attr unit  B
vector 919  BasicTopology.peer[11].bitTorrentApp.bitTorrentClient.contentManager_26  PiecesDownloaded:vector  ETV
attr source  ContentManager_PieceDownloaded
attr title  "Pieces Downloaded, vector"
vector 921  BasicTopology.peer[11].bitTorrentApp.bitTorrentClient.contentManager_26  TotalBytesUploaded:vector  ETV
attr source  ContentManager_TotalBytesUploaded
attr title  "Total of Bytes Uploaded, vector"
attr unit  B
vector 903  BasicTopology.peer[9].bitTorrentApp.bitTorrentClient.contentManager_26  PiecesDownloaded:vector  ETV
attr source  ContentManager_PieceDownloaded
attr title  "Pieces Downloaded, vector"
vector 984  BasicTopology.peer[19].bitTorrentApp.bitTorrentClient.contentManager_26  TotalBytesDownloaded:vector  ETV
attr source  ContentManager_TotalBytesDownloaded
attr title  "Total of Bytes Downloaded, vector"
attr unit  B
vector 855  BasicTopology.peer[3].bitTorrentApp.bitTorrentClient.contentManager_26  PiecesDownloaded:vector  ETV
attr source  ContentManager_PieceDownloaded
attr title  "Pieces Downloaded, vector"
vector 896  BasicTopology.peer[8].bitTorrentApp.bitTorrentClient.contentManager_26  TotalBytesDownloaded:vector  ETV
attr source  ContentManager_TotalBytesDownloaded
attr title  "Total of Bytes Downloaded, vector"
attr unit  B
vector 857  BasicTopology.peer[3].bitTorrentApp.bitTorrentClient.contentManager_26  TotalBytesUploaded:vector  ETV
attr source  ContentManager_TotalBytesUploaded
attr title  "Total of Bytes Uploaded, vector"
attr unit  B
vector 1008  BasicTopology.peer[22].bitTorrentApp.bitTorrentClient.contentManager_26  TotalBytesDownloaded:vector  ETV
attr source  ContentManager_TotalBytesDownloaded
attr title  "Total of Bytes Downloaded, vector"
attr unit  B
vector 1024  BasicTopology.peer[24].bitTorrentApp.bitTorrentClient.contentManager_26  TotalBytesDownloaded:vector  ETV
attr source  ContentManager_TotalBytesDownloaded
attr title  "Total of Bytes Downloaded, vector"
attr unit  B
vector 952  BasicTopology.peer[15].bitTorrentApp.bitTorrentClient.contentManager_26  TotalBytesDownloaded:vector  ETV
attr source  ContentManager_TotalBytesDownloaded
attr title  "Total of Bytes Downloaded, vector"
attr unit  B
vector 905  BasicTopology.peer[9].bitTorrentApp.bitTorrentClient.contentManager_26  TotalBytesUploaded:vector  ETV
attr source  ContentManager_TotalBytesUploaded
attr title  "Total of Bytes Uploaded, vector"
attr unit  B
vector 968  BasicTopology.peer[17].bitTorrentApp.bitTorrentClient.contentManager_26  TotalBytesDownloaded:vector  ETV
attr source  ContentManager_TotalBytesDownloaded
attr title  "Total of Bytes Downloaded, vector"
attr unit  B
vector 943  BasicTopology.peer[14].bitTorrentApp.bitTorrentClient.contentManager_26  PiecesDownloaded:vector  ETV
attr source  ContentManager_PieceDownloaded
attr title  "Pieces Downloaded, vector"
vector 967  BasicTopology.peer[17].bitTorrentApp.bitTorrentClient.contentManager_26  PiecesDownloaded:vector  ETV
attr source  ContentManager_PieceDownloaded
attr title  "Pieces Downloaded, vector"
vector 895  BasicTopology.peer[8].bitTorrentApp.bitTorrentClient.contentManager_26  PiecesDownloaded:vector  ETV
attr source  ContentManager_PieceDownloaded
attr title  "Pieces Downloaded, vector"
vector 863  BasicTopology.peer[4].bitTorrentApp.bitTorrentClient.contentManager_26  PiecesDownloaded:vector  ETV
attr source  ContentManager_PieceDownloaded
attr title  "Pieces Downloaded, vector"
vector 865  BasicTopology.peer[4].bitTorrentApp.bitTorrentClient.contentManager_26  TotalBytesUploaded:vector  ETV
attr source  ContentManager_TotalBytesUploaded
attr title  "Total of Bytes Uploaded, vector"
attr unit  B
vector 1015  BasicTopology.peer[23].bitTorrentApp.bitTorrentClient.contentManager_26  PiecesDownloaded:vector  ETV
attr source  ContentManager_PieceDownloaded
attr title  "Pieces Downloaded, vector"
vector 1017  BasicTopology.peer[23].bitTorrentApp.bitTorrentClient.contentManager_26  TotalBytesUploaded:vector  ETV
attr source  ContentManager_TotalBytesUploaded
attr title  "Total of Bytes Uploaded, vector"
attr unit  B
vector 871  BasicTopology.peer[5].bitTorrentApp.bitTorrentClient.contentManager_26  PiecesDownloaded:vector  ETV
attr source  ContentManager_PieceDownloaded
attr title  "Pieces Downloaded, vector"
vector 951  BasicTopology.peer[15].bitTorrentApp.bitTorrentClient.contentManager_26  PiecesDownloaded:vector  ETV
attr source  ContentManager_PieceDownloaded
attr title  "Pieces Downloaded, vector"
vector 983  BasicTopology.peer[19].bitTorrentApp.bitTorrentClient.contentManager_26  PiecesDownloaded:vector  ETV
attr source  ContentManager_PieceDownloaded
attr title  "Pieces Downloaded, vector"
vector 1000  BasicTopology.peer[21].bitTorrentApp.bitTorrentClient.contentManager_26  TotalBytesDownloaded:vector  ETV
attr source  ContentManager_TotalBytesDownloaded
attr title  "Total of Bytes Downloaded, vector"
attr unit  B
vector 873  BasicTopology.peer[5].bitTorrentApp.bitTorrentClient.contentManager_26  TotalBytesUploaded:vector  ETV
attr source  ContentManager_TotalBytesUploaded
attr title  "Total of Bytes Uploaded, vector"
attr unit  B
vector 1023  BasicTopology.peer[24].bitTorrentApp.bitTorrentClient.contentManager_26  PiecesDownloaded:vector  ETV
attr source  ContentManager_PieceDownloaded
attr title  "Pieces Downloaded, vector"
vector 1025  BasicTopology.peer[24].bitTorrentApp.bitTorrentClient.contentManager_26  TotalBytesUploaded:vector  ETV
attr source  ContentManager_TotalBytesUploaded
attr title  "Total of Bytes Uploaded, vector"
attr unit  B
vector 936  BasicTopology.peer[13].bitTorrentApp.bitTorrentClient.contentManager_26  TotalBytesDownloaded:vector  ETV
attr source  ContentManager_TotalBytesDownloaded
attr title  "Total of Bytes Downloaded, vector"
attr unit  B
vector 999  BasicTopology.peer[21].bitTorrentApp.bitTorrentClient.contentManager_26  PiecesDownloaded:vector  ETV
attr source  ContentManager_PieceDownloaded
attr title  "Pieces Downloaded, vector"
vector 1001  BasicTopology.peer[21].bitTorrentApp.bitTorrentClient.contentManager_26  TotalBytesUploaded:vector  ETV
attr source  ContentManager_TotalBytesUploaded
attr title  "Total of Bytes Uploaded, vector"
attr unit  B
vector 975  BasicTopology.peer[18].bitTorrentApp.bitTorrentClient.contentManager_26  PiecesDownloaded:vector  ETV
attr source  ContentManager_PieceDownloaded
attr title  "Pieces Downloaded, vector"
vector 897  BasicTopology.peer[8].bitTorrentApp.bitTorrentClient.contentManager_26  TotalBytesUploaded:vector  ETV
attr source  ContentManager_TotalBytesUploaded
attr title  "Total of Bytes Uploaded, vector"
attr unit  B
vector 959  BasicTopology.peer[16].bitTorrentApp.bitTorrentClient.contentManager_26  PiecesDownloaded:vector  ETV
attr source  ContentManager_PieceDownloaded
attr title  "Pieces Downloaded, vector"
vector 1007  BasicTopology.peer[22].bitTorrentApp.bitTorrentClient.contentManager_26  PiecesDownloaded:vector  ETV
attr source  ContentManager_PieceDownloaded
attr title  "Pieces Downloaded, vector"
vector 935  BasicTopology.peer[13].bitTorrentApp.bitTorrentClient.contentManager_26  PiecesDownloaded:vector  ETV
attr source  ContentManager_PieceDownloaded
attr title  "Pieces Downloaded, vector"
vector 937  BasicTopology.peer[13].bitTorrentApp.bitTorrentClient.contentManager_26  TotalBytesUploaded:vector  ETV
attr source  ContentManager_TotalBytesUploaded
attr title  "Total of Bytes Uploaded, vector"
attr unit  B
vector 1009  BasicTopology.peer[22].bitTorrentApp.bitTorrentClient.contentManager_26  TotalBytesUploaded:vector  ETV
attr source  ContentManager_TotalBytesUploaded
attr title  "Total of Bytes Uploaded, vector"
attr unit  B
vector 969  BasicTopology.peer[17].bitTorrentApp.bitTorrentClient.contentManager_26  TotalBytesUploaded:vector  ETV
attr source  ContentManager_TotalBytesUploaded
attr title  "Total of Bytes Uploaded, vector"
attr unit  B
vector 945  BasicTopology.peer[14].bitTorrentApp.bitTorrentClient.contentManager_26  TotalBytesUploaded:vector  ETV
attr source  ContentManager_TotalBytesUploaded
attr title  "Total of Bytes Uploaded, vector"
attr unit  B
vector 961  BasicTopology.peer[16].bitTorrentApp.bitTorrentClient.contentManager_26  TotalBytesUploaded:vector  ETV
attr source  ContentManager_TotalBytesUploaded
attr title  "Total of Bytes Uploaded, vector"
attr unit  B
vector 985  BasicTopology.peer[19].bitTorrentApp.bitTorrentClient.contentManager_26  TotalBytesUploaded:vector  ETV
attr source  ContentManager_TotalBytesUploaded
attr title  "Total of Bytes Uploaded, vector"
attr unit  B
3	85	36001	36001
3	65215445	36121.352677845457	36121.352677845
5	86	36001	36001
5	45625309	36082.666756800229	36082.6667568
7	87	36001	36001
7	53351904	36097.317862450804	36097.317862451
9	88	36001	36001
9	81057739	36168.463148068471	36168.463148068
11	89	36001	36001
11	62747339	36116.411162550538	36116.411162551
13	90	36001	36001
13	74868268	36142.775934003284	36142.775934003
15	91	36001	36001
15	71430043	36134.75583768679	36134.755837687
17	92	36001	36001
17	77251178	36150.286035212086	36150.286035212
19	93	36001	36001
19	81761561	36305.233377370691	36305.233377371
21	94	36001	36001
21	27699835	36053.077751173713	36053.077751174
23	95	36001	36001
23	66562170	36124.046682022125	36124.046682022
25	96	36001	36001
25	68471257	36128.20346312391	36128.203463124
27	97	36001	36001
27	69523432	36130.402059532621	36130.402059533
29	98	36001	36001
29	72618879	36137.433294875211	36137.433294875
31	99	36001	36001
31	80315162	36164.604537785679	36164.604537786
33	100	36001	36001
33	76523465	36146.797298974179	36146.797298974
35	101	36001	36001
35	75197807	36143.768468062855	36143.768468063
37	102	36001	36001
37	78055831	36153.64460953199	36153.644609532
39	103	36001	36001
39	79835577	36161.382766115462	36161.382766115
41	104	36001	36001
41	61619948	36113.988682870031	36113.98868287
43	105	36001	36001
43	78802936	36155.974954355216	36155.974954355
45	106	36001	36001
45	63290094	36117.669453862438	36117.669453862
47	107	36001	36001
47	64594111	36120.181101676067	36120.181101676
49	108	36001	36001
49	68578995	36128.386719402046	36128.386719402
833	393972	36002.6471253832	32768
833	417112	36002.677201923993	65536
833	422683	36002.688605454379	98304
833	422685	36002.690207676844	131072
833	422744	36002.701915511998	163840
833	422747	36002.719217988752	196608
833	422749	36002.719834810702	229376
833	422751	36002.720304908832	262144
833	422840	36002.74183077488	294912
833	422842	36002.741975182061	327680
833	476166	36003.073594620601	360448
833	479284	36003.078622001491	393216
833	479759	36003.079244221779	425984
833	486500	36003.097170496217	458752
833	487812	36003.100600650027	491520
833	491372	36003.117257344365	524288
833	491375	36003.126651146146	557056
833	491377	36003.128907483156	589824
833	491984	36003.140422969388	622592
833	492222	36003.155719093091	655360
833	503840	36003.754925969824	688128
833	554711	36003.932143769833	720896
833	686752	36004.113642291127	753664
833	701495	36004.131666817836	786432
833	702450	36004.13267982547	819200
833	724267	36004.158994437165	851968
833	724340	36004.159099207832	884736
833	726119	36004.161028456221	917504
833	746790	36004.19473309938	950272
833	747655	36004.199869720504	983040
833	747661	36004.216559431996	1015808
833	747663	36004.221106738844	1048576
833	747665	36004.221253206609	1081344
833	747667	36004.231880113139	1114112
833	747669	36004.233426501596	1146880
833	747671	36004.236504907841	1179648
833	747674	36004.247839125478	1212416
833	747676	36004.26517003363	1245184
833	747679	36004.273467258665	1277952
833	747681	36004.285100880029	1310720
833	747683	36004.285221423274	1343488
833	747685	36004.286500370537	1376256
833	762962	36004.502998082191	1409024
833	880439	36004.653060521398	1441792
833	971314	36005.034786854431	1474560
833	998829	36005.104492239871	1507328
833	1033946	36005.179353674489	1540096
833	1060161	36005.250349992864	1572864
833	1067617	36005.270410116715	1605632
833	1092881	36005.332750893434	1638400
833	1194182	36005.576153769506	1671168
833	1235703	36005.653527477068	1703936
833	1292313	36005.769351049624	1736704
833	1320102	36005.856412830608	1769472
833	1405813	36006.316164806557	1802240
833	1426946	36006.371468962989	1835008
833	1441024	36006.406978213682	1867776
833	1463546	36006.466995248468	1900544
833	1482408	36006.518660989521	1933312
833	1497915	36006.560424744846	1966080
833	1516355	36006.610194541576	1998848
833	1631281	36006.90368951212	2031616
833	1779391	36007.280460047517	2064384
833	1779393	36007.304771238621	2097152
833	1802378	36007.505152503172	2129920
833	1864150	36007.648177104565	2162688
833	1883892	36007.691486525874	2195456
833	1909489	36007.733488233057	2228224
833	1939427	36008.016203607783	2260992
833	1954320	36008.058294667123	2293760
833	2200856	36008.757660579293	2326528
833	2237923	36008.84721238748	2359296
833	2253595	36008.889262897881	2392064
833	2289869	36009.192442215083	2424832
833	2320318	36009.270173488992	2457600
833	2656468	36009.963564481527	2490368
833	2811045	36010.203483853664	2523136
833	2831843	36010.259069226595	2555904
833	2887925	36010.371092324872	2588672
833	2937661	36010.473377367969	2621440
833	2973987	36010.554416815719	2654208
833	3754749	36012.484252274039	2686976
833	4033198	36013.050944787563	2719744
833	4070803	36013.095836354104	2752512
833	4116436	36013.155745378759	2785280
833	4330595	36013.63896946786	2818048
833	4372025	36013.71755604521	2850816
833	4470658	36013.890586232663	2883584
833	4698679	36014.265769662201	2916352
833	4710014	36014.293692207284	2949120
833	4996663	36015.039371388879	2981888
833	5688030	36016.152137708847	3014656
833	5730369	36016.240894421821	3047424
833	5797267	36016.361352690468	3080192
833	5835613	36016.423315774389	3112960
833	5896417	36016.518505815741	3145728
833	5961253	36016.6191924272	3178496
833	6161912	36016.981410019352	3211264
833	6537273	36017.698876005347	3244032
833	7227685	36018.809846579361	3276800
833	7456076	36019.239815474877	3309568
833	7592615	36019.47192744856	3342336
833	7842001	36019.912060155478	3375104
833	7870079	36019.958036314111	3407872
833	7923521	36020.044268717909	3440640
833	9276662	36022.550984360804	3473408
833	9276979	36022.551480613611	3506176
833	9284606	36022.563952524734	3538944
833	9284632	36022.563993245039	3571712
833	9285705	36022.565476491759	3604480
833	9285877	36022.565755350078	3637248
833	9286452	36022.566459957243	3670016
833	9299135	36022.587192806393	3702784
833	9299414	36022.587719523836	3735552
833	9299776	36022.588433173927	3768320
833	9402950	36022.750624458348	3801088
833	9665986	36023.166800199877	3833856
833	9707019	36023.224891831875	3866624
833	9747322	36023.284746814441	3899392
833	9790781	36023.34702943002	3932160
833	10066709	36023.881276337445	3964928
833	10106461	36023.9376158218	3997696
833	10173590	36024.049481954352	4030464
833	10291635	36024.239405155898	4063232
833	10328005	36024.299834223902	4096000
833	10379069	36024.369941996067	4128768
833	10420945	36024.431179958	4161536
833	10896755	36025.161909904734	4194304
833	10930300	36025.25556942742	4227072
833	11052932	36025.510377557506	4259840
833	11115876	36025.605106400255	4292608
833	11191918	36025.720466983543	4325376
833	11282186	36025.842095057674	4358144
833	11658772	36026.412524842557	4390912
833	11713114	36026.488787143741	4423680
833	12653970	36028.024296585685	4456448
833	13005214	36028.604909328785	4489216
833	13049752	36028.67560457445	4521984
833	13075053	36028.714440327032	4554752
833	13120350	36028.775916115653	4587520
833	13158106	36028.822605870011	4620288
833	13203538	36028.886186370515	4653056
833	13262522	36028.96613185985	4685824
833	13319050	36029.041552377058	4718592
833	13436114	36029.23768510443	4751360
833	13523980	36029.402480990007	4784128
833	13996826	36030.120247218078	4816896
833	14031158	36030.16893047387	4849664
833	14077632	36030.233519661191	4882432
833	14154159	36030.332007459458	4915200
833	14166884	36030.350016055246	4947968
833	14810050	36031.441689233631	4980736
833	14901662	36031.602956116154	5013504
833	14920757	36031.635559622513	5046272
833	15455455	36032.559755896514	5079040
833	15464842	36032.57227618094	5111808
833	15470598	36032.583313192141	5144576
833	15471063	36032.584161295912	5177344
833	15471472	36032.584843735912	5210112
833	15472110	36032.586618354582	5242880
833	15472948	36032.588374597981	5275648
833	15479140	36032.601351106919	5308416
833	15492700	36032.622038256967	5341184
833	15497783	36032.627632076885	5373952
833	15512167	36032.648384581252	5406720
833	15527058	36032.66760867099	5439488
833	15651078	36032.847766220992	5472256
833	15750976	36032.994250155822	5505024
833	15796147	36033.062447581059	5537792
833	16393555	36034.081136424014	5570560
833	16467686	36034.207789091761	5603328
833	16518663	36034.292787449925	5636096
833	16668822	36034.536786640675	5668864
833	16698435	36034.583543126712	5701632
833	17200249	36035.364599296443	5734400
833	17204661	36035.374102303794	5767168
833	17393256	36035.699301320401	5799936
833	17448817	36035.788294138939	5832704
833	17506510	36035.893733208435	5865472
833	17568968	36036.018633072412	5898240
833	17800143	36036.491581083796	5931008
833	17801973	36036.493804267179	5963776
833	17802312	36036.494606839271	5996544
833	17923967	36036.69527973702	6029312
833	18208488	36037.242349311766	6062080
833	18770336	36038.288850553714	6094848
833	18797402	36038.330136731838	6127616
833	19446264	36039.556343913442	6160384
833	19453450	36039.569256664382	6193152
833	19573273	36039.763752427799	6225920
833	21437883	36042.859999763724	6258688
833	22084994	36043.870676543012	6291456
833	24005517	36046.796265599972	6324224
833	24041976	36046.864915282397	6356992
833	24069797	36046.910169735683	6389760
833	24103451	36046.96526014997	6422528
833	24746335	36048.03811705392	6455296
833	25420358	36049.14526683293	6488064
833	25473203	36049.248355419948	6520832
833	27449987	36052.585726943763	6553600
833	27450536	36052.58663477959	6586368
833	27451537	36052.588972521734	6619136