version 2
run Test-16-20200526-12:15:37-5304
attr configname Test
attr datetime 20200526-12:15:37
attr experiment "\"Simulation Test\""
attr inifile BasicConfig.ini
attr iterationvars ""
attr iterationvars2 $repetition=16
attr measurement "\"Peers: $peers, Rate: $rate\""
attr network BasicTopology
attr processid 5304
attr repetition 16
attr replication #16
attr resultdir results
attr runnumber 16
attr seedset 16

vector 3  BasicTopology.peer[1].bitTorrentApp.bitTorrentClient  DownloadComplete_Test:vector  ETV
attr source  BitTorrentClient_DownloadComplete_Test
attr title  "Descargas completas (prueba), vector"
vector 5  BasicTopology.peer[2].bitTorrentApp.bitTorrentClient  DownloadComplete_Test:vector  ETV
attr source  BitTorrentClient_DownloadComplete_Test
attr title  "Descargas completas (prueba), vector"
vector 7  BasicTopology.peer[3].bitTorrentApp.bitTorrentClient  DownloadComplete_Test:vector  ETV
attr source  BitTorrentClient_DownloadComplete_Test
attr title  "Descargas completas (prueba), vector"
vector 9  BasicTopology.peer[4].bitTorrentApp.bitTorrentClient  DownloadComplete_Test:vector  ETV
attr source  BitTorrentClient_DownloadComplete_Test
attr title  "Descargas completas (prueba), vector"
vector 11  BasicTopology.peer[5].bitTorrentApp.bitTorrentClient  DownloadComplete_Test:vector  ETV
attr source  BitTorrentClient_DownloadComplete_Test
attr title  "Descargas completas (prueba), vector"
vector 13  BasicTopology.peer[6].bitTorrentApp.bitTorrentClient  DownloadComplete_Test:vector  ETV
attr source  BitTorrentClient_DownloadComplete_Test
attr title  "Descargas completas (prueba), vector"
vector 15  BasicTopology.peer[7].bitTorrentApp.bitTorrentClient  DownloadComplete_Test:vector  ETV
attr source  BitTorrentClient_DownloadComplete_Test
attr title  "Descargas completas (prueba), vector"
vector 17  BasicTopology.peer[8].bitTorrentApp.bitTorrentClient  DownloadComplete_Test:vector  ETV
attr source  BitTorrentClient_DownloadComplete_Test
attr title  "Descargas completas (prueba), vector"
vector 19  BasicTopology.peer[9].bitTorrentApp.bitTorrentClient  DownloadComplete_Test:vector  ETV
attr source  BitTorrentClient_DownloadComplete_Test
attr title  "Descargas completas (prueba), vector"
vector 21  BasicTopology.peer[10].bitTorrentApp.bitTorrentClient  DownloadComplete_Test:vector  ETV
attr source  BitTorrentClient_DownloadComplete_Test
attr title  "Descargas completas (prueba), vector"
vector 23  BasicTopology.peer[11].bitTorrentApp.bitTorrentClient  DownloadComplete_Test:vector  ETV
attr source  BitTorrentClient_DownloadComplete_Test
attr title  "Descargas completas (prueba), vector"
vector 25  BasicTopology.peer[12].bitTorrentApp.bitTorrentClient  DownloadComplete_Test:vector  ETV
attr source  BitTorrentClient_DownloadComplete_Test
attr title  "Descargas completas (prueba), vector"
vector 27  BasicTopology.peer[13].bitTorrentApp.bitTorrentClient  DownloadComplete_Test:vector  ETV
attr source  BitTorrentClient_DownloadComplete_Test
attr title  "Descargas completas (prueba), vector"
vector 29  BasicTopology.peer[14].bitTorrentApp.bitTorrentClient  DownloadComplete_Test:vector  ETV
attr source  BitTorrentClient_DownloadComplete_Test
attr title  "Descargas completas (prueba), vector"
vector 31  BasicTopology.peer[15].bitTorrentApp.bitTorrentClient  DownloadComplete_Test:vector  ETV
attr source  BitTorrentClient_DownloadComplete_Test
attr title  "Descargas completas (prueba), vector"
vector 33  BasicTopology.peer[16].bitTorrentApp.bitTorrentClient  DownloadComplete_Test:vector  ETV
attr source  BitTorrentClient_DownloadComplete_Test
attr title  "Descargas completas (prueba), vector"
vector 35  BasicTopology.peer[17].bitTorrentApp.bitTorrentClient  DownloadComplete_Test:vector  ETV
attr source  BitTorrentClient_DownloadComplete_Test
attr title  "Descargas completas (prueba), vector"
vector 37  BasicTopology.peer[18].bitTorrentApp.bitTorrentClient  DownloadComplete_Test:vector  ETV
attr source  BitTorrentClient_DownloadComplete_Test
attr title  "Descargas completas (prueba), vector"
vector 39  BasicTopology.peer[19].bitTorrentApp.bitTorrentClient  DownloadComplete_Test:vector  ETV
attr source  BitTorrentClient_DownloadComplete_Test
attr title  "Descargas completas (prueba), vector"
vector 41  BasicTopology.peer[20].bitTorrentApp.bitTorrentClient  DownloadComplete_Test:vector  ETV
attr source  BitTorrentClient_DownloadComplete_Test
attr title  "Descargas completas (prueba), vector"
vector 43  BasicTopology.peer[21].bitTorrentApp.bitTorrentClient  DownloadComplete_Test:vector  ETV
attr source  BitTorrentClient_DownloadComplete_Test
attr title  "Descargas completas (prueba), vector"
vector 45  BasicTopology.peer[22].bitTorrentApp.bitTorrentClient  DownloadComplete_Test:vector  ETV
attr source  BitTorrentClient_DownloadComplete_Test
attr title  "Descargas completas (prueba), vector"
vector 47  BasicTopology.peer[23].bitTorrentApp.bitTorrentClient  DownloadComplete_Test:vector  ETV
attr source  BitTorrentClient_DownloadComplete_Test
attr title  "Descargas completas (prueba), vector"
vector 49  BasicTopology.peer[24].bitTorrentApp.bitTorrentClient  DownloadComplete_Test:vector  ETV
attr source  BitTorrentClient_DownloadComplete_Test
attr title  "Descargas completas (prueba), vector"
vector 833  BasicTopology.peer[0].bitTorrentApp.bitTorrentClient.contentManager_26  TotalBytesUploaded:vector  ETV
attr source  ContentManager_TotalBytesUploaded
attr title  "Total of Bytes Uploaded, vector"
attr unit  B
vector 1000  BasicTopology.peer[21].bitTorrentApp.bitTorrentClient.contentManager_26  TotalBytesDownloaded:vector  ETV
attr source  ContentManager_TotalBytesDownloaded
attr title  "Total of Bytes Downloaded, vector"
attr unit  B
vector 912  BasicTopology.peer[10].bitTorrentApp.bitTorrentClient.contentManager_26  TotalBytesDownloaded:vector  ETV
attr source  ContentManager_TotalBytesDownloaded
attr title  "Total of Bytes Downloaded, vector"
attr unit  B
vector 992  BasicTopology.peer[20].bitTorrentApp.bitTorrentClient.contentManager_26  TotalBytesDownloaded:vector  ETV
attr source  ContentManager_TotalBytesDownloaded
attr title  "Total of Bytes Downloaded, vector"
attr unit  B
vector 911  BasicTopology.peer[10].bitTorrentApp.bitTorrentClient.contentManager_26  PiecesDownloaded:vector  ETV
attr source  ContentManager_PieceDownloaded
attr title  "Pieces Downloaded, vector"
vector 913  BasicTopology.peer[10].bitTorrentApp.bitTorrentClient.contentManager_26  TotalBytesUploaded:vector  ETV
attr source  ContentManager_TotalBytesUploaded
attr title  "Total of Bytes Uploaded, vector"
attr unit  B
vector 999  BasicTopology.peer[21].bitTorrentApp.bitTorrentClient.contentManager_26  PiecesDownloaded:vector  ETV
attr source  ContentManager_PieceDownloaded
attr title  "Pieces Downloaded, vector"
vector 1001  BasicTopology.peer[21].bitTorrentApp.bitTorrentClient.contentManager_26  TotalBytesUploaded:vector  ETV
attr source  ContentManager_TotalBytesUploaded
attr title  "Total of Bytes Uploaded, vector"
attr unit  B
vector 991  BasicTopology.peer[20].bitTorrentApp.bitTorrentClient.contentManager_26  PiecesDownloaded:vector  ETV
attr source  ContentManager_PieceDownloaded
attr title  "Pieces Downloaded, vector"
vector 993  BasicTopology.peer[20].bitTorrentApp.bitTorrentClient.contentManager_26  TotalBytesUploaded:vector  ETV
attr source  ContentManager_TotalBytesUploaded
attr title  "Total of Bytes Uploaded, vector"
attr unit  B
vector 1008  BasicTopology.peer[22].bitTorrentApp.bitTorrentClient.contentManager_26  TotalBytesDownloaded:vector  ETV
attr source  ContentManager_TotalBytesDownloaded
attr title  "Total of Bytes Downloaded, vector"
attr unit  B
vector 888  BasicTopology.peer[7].bitTorrentApp.bitTorrentClient.contentManager_26  TotalBytesDownloaded:vector  ETV
attr source  ContentManager_TotalBytesDownloaded
attr title  "Total of Bytes Downloaded, vector"
attr unit  B
vector 840  BasicTopology.peer[1].bitTorrentApp.bitTorrentClient.contentManager_26  TotalBytesDownloaded:vector  ETV
attr source  ContentManager_TotalBytesDownloaded
attr title  "Total of Bytes Downloaded, vector"
attr unit  B
vector 872  BasicTopology.peer[5].bitTorrentApp.bitTorrentClient.contentManager_26  TotalBytesDownloaded:vector  ETV
attr source  ContentManager_TotalBytesDownloaded
attr title  "Total of Bytes Downloaded, vector"
attr unit  B
vector 896  BasicTopology.peer[8].bitTorrentApp.bitTorrentClient.contentManager_26  TotalBytesDownloaded:vector  ETV
attr source  ContentManager_TotalBytesDownloaded
attr title  "Total of Bytes Downloaded, vector"
attr unit  B
vector 839  BasicTopology.peer[1].bitTorrentApp.bitTorrentClient.contentManager_26  PiecesDownloaded:vector  ETV
attr source  ContentManager_PieceDownloaded
attr title  "Pieces Downloaded, vector"
vector 841  BasicTopology.peer[1].bitTorrentApp.bitTorrentClient.contentManager_26  TotalBytesUploaded:vector  ETV
attr source  ContentManager_TotalBytesUploaded
attr title  "Total of Bytes Uploaded, vector"
attr unit  B
vector 848  BasicTopology.peer[2].bitTorrentApp.bitTorrentClient.contentManager_26  TotalBytesDownloaded:vector  ETV
attr source  ContentManager_TotalBytesDownloaded
attr title  "Total of Bytes Downloaded, vector"
attr unit  B
vector 847  BasicTopology.peer[2].bitTorrentApp.bitTorrentClient.contentManager_26  PiecesDownloaded:vector  ETV
attr source  ContentManager_PieceDownloaded
attr title  "Pieces Downloaded, vector"
vector 849  BasicTopology.peer[2].bitTorrentApp.bitTorrentClient.contentManager_26  TotalBytesUploaded:vector  ETV
attr source  ContentManager_TotalBytesUploaded
attr title  "Total of Bytes Uploaded, vector"
attr unit  B
vector 936  BasicTopology.peer[13].bitTorrentApp.bitTorrentClient.contentManager_26  TotalBytesDownloaded:vector  ETV
attr source  ContentManager_TotalBytesDownloaded
attr title  "Total of Bytes Downloaded, vector"
attr unit  B
vector 864  BasicTopology.peer[4].bitTorrentApp.bitTorrentClient.contentManager_26  TotalBytesDownloaded:vector  ETV
attr source  ContentManager_TotalBytesDownloaded
attr title  "Total of Bytes Downloaded, vector"
attr unit  B
vector 880  BasicTopology.peer[6].bitTorrentApp.bitTorrentClient.contentManager_26  TotalBytesDownloaded:vector  ETV
attr source  ContentManager_TotalBytesDownloaded
attr title  "Total of Bytes Downloaded, vector"
attr unit  B
vector 944  BasicTopology.peer[14].bitTorrentApp.bitTorrentClient.contentManager_26  TotalBytesDownloaded:vector  ETV
attr source  ContentManager_TotalBytesDownloaded
attr title  "Total of Bytes Downloaded, vector"
attr unit  B
vector 960  BasicTopology.peer[16].bitTorrentApp.bitTorrentClient.contentManager_26  TotalBytesDownloaded:vector  ETV
attr source  ContentManager_TotalBytesDownloaded
attr title  "Total of Bytes Downloaded, vector"
attr unit  B
vector 952  BasicTopology.peer[15].bitTorrentApp.bitTorrentClient.contentManager_26  TotalBytesDownloaded:vector  ETV
attr source  ContentManager_TotalBytesDownloaded
attr title  "Total of Bytes Downloaded, vector"
attr unit  B
vector 920  BasicTopology.peer[11].bitTorrentApp.bitTorrentClient.contentManager_26  TotalBytesDownloaded:vector  ETV
attr source  ContentManager_TotalBytesDownloaded
attr title  "Total of Bytes Downloaded, vector"
attr unit  B
vector 904  BasicTopology.peer[9].bitTorrentApp.bitTorrentClient.contentManager_26  TotalBytesDownloaded:vector  ETV
attr source  ContentManager_TotalBytesDownloaded
attr title  "Total of Bytes Downloaded, vector"
attr unit  B
vector 959  BasicTopology.peer[16].bitTorrentApp.bitTorrentClient.contentManager_26  PiecesDownloaded:vector  ETV
attr source  ContentManager_PieceDownloaded
attr title  "Pieces Downloaded, vector"
vector 961  BasicTopology.peer[16].bitTorrentApp.bitTorrentClient.contentManager_26  TotalBytesUploaded:vector  ETV
attr source  ContentManager_TotalBytesUploaded
attr title  "Total of Bytes Uploaded, vector"
attr unit  B
vector 1016  BasicTopology.peer[23].bitTorrentApp.bitTorrentClient.contentManager_26  TotalBytesDownloaded:vector  ETV
attr source  ContentManager_TotalBytesDownloaded
attr title  "Total of Bytes Downloaded, vector"
attr unit  B
vector 856  BasicTopology.peer[3].bitTorrentApp.bitTorrentClient.contentManager_26  TotalBytesDownloaded:vector  ETV
attr source  ContentManager_TotalBytesDownloaded
attr title  "Total of Bytes Downloaded, vector"
attr unit  B
vector 863  BasicTopology.peer[4].bitTorrentApp.bitTorrentClient.contentManager_26  PiecesDownloaded:vector  ETV
attr source  ContentManager_PieceDownloaded
attr title  "Pieces Downloaded, vector"
vector 1007  BasicTopology.peer[22].bitTorrentApp.bitTorrentClient.contentManager_26  PiecesDownloaded:vector  ETV
attr source  ContentManager_PieceDownloaded
attr title  "Pieces Downloaded, vector"
vector 984  BasicTopology.peer[19].bitTorrentApp.bitTorrentClient.contentManager_26  TotalBytesDownloaded:vector  ETV
attr source  ContentManager_TotalBytesDownloaded
attr title  "Total of Bytes Downloaded, vector"
attr unit  B
vector 1009  BasicTopology.peer[22].bitTorrentApp.bitTorrentClient.contentManager_26  TotalBytesUploaded:vector  ETV
attr source  ContentManager_TotalBytesUploaded
attr title  "Total of Bytes Uploaded, vector"
attr unit  B
vector 879  BasicTopology.peer[6].bitTorrentApp.bitTorrentClient.contentManager_26  PiecesDownloaded:vector  ETV
attr source  ContentManager_PieceDownloaded
attr title  "Pieces Downloaded, vector"
vector 968  BasicTopology.peer[17].bitTorrentApp.bitTorrentClient.contentManager_26  TotalBytesDownloaded:vector  ETV
attr source  ContentManager_TotalBytesDownloaded
attr title  "Total of Bytes Downloaded, vector"
attr unit  B
vector 928  BasicTopology.peer[12].bitTorrentApp.bitTorrentClient.contentManager_26  TotalBytesDownloaded:vector  ETV
attr source  ContentManager_TotalBytesDownloaded
attr title  "Total of Bytes Downloaded, vector"
attr unit  B
vector 967  BasicTopology.peer[17].bitTorrentApp.bitTorrentClient.contentManager_26  PiecesDownloaded:vector  ETV
attr source  ContentManager_PieceDownloaded
attr title  "Pieces Downloaded, vector"
vector 1024  BasicTopology.peer[24].bitTorrentApp.bitTorrentClient.contentManager_26  TotalBytesDownloaded:vector  ETV
attr source  ContentManager_TotalBytesDownloaded
attr title  "Total of Bytes Downloaded, vector"
attr unit  B
vector 1015  BasicTopology.peer[23].bitTorrentApp.bitTorrentClient.contentManager_26  PiecesDownloaded:vector  ETV
attr source  ContentManager_PieceDownloaded
attr title  "Pieces Downloaded, vector"
vector 871  BasicTopology.peer[5].bitTorrentApp.bitTorrentClient.contentManager_26  PiecesDownloaded:vector  ETV
attr source  ContentManager_PieceDownloaded
attr title  "Pieces Downloaded, vector"
vector 1017  BasicTopology.peer[23].bitTorrentApp.bitTorrentClient.contentManager_26  TotalBytesUploaded:vector  ETV
attr source  ContentManager_TotalBytesUploaded
attr title  "Total of Bytes Uploaded, vector"
attr unit  B
vector 903  BasicTopology.peer[9].bitTorrentApp.bitTorrentClient.contentManager_26  PiecesDownloaded:vector  ETV
attr source  ContentManager_PieceDownloaded
attr title  "Pieces Downloaded, vector"
vector 943  BasicTopology.peer[14].bitTorrentApp.bitTorrentClient.contentManager_26  PiecesDownloaded:vector  ETV
attr source  ContentManager_PieceDownloaded
attr title  "Pieces Downloaded, vector"
vector 855  BasicTopology.peer[3].bitTorrentApp.bitTorrentClient.contentManager_26  PiecesDownloaded:vector  ETV
attr source  ContentManager_PieceDownloaded
attr title  "Pieces Downloaded, vector"
vector 976  BasicTopology.peer[18].bitTorrentApp.bitTorrentClient.contentManager_26  TotalBytesDownloaded:vector  ETV
attr source  ContentManager_TotalBytesDownloaded
attr title  "Total of Bytes Downloaded, vector"
attr unit  B
vector 1023  BasicTopology.peer[24].bitTorrentApp.bitTorrentClient.contentManager_26  PiecesDownloaded:vector  ETV
attr source  ContentManager_PieceDownloaded
attr title  "Pieces Downloaded, vector"
vector 935  BasicTopology.peer[13].bitTorrentApp.bitTorrentClient.contentManager_26  PiecesDownloaded:vector  ETV
attr source  ContentManager_PieceDownloaded
attr title  "Pieces Downloaded, vector"
vector 937  BasicTopology.peer[13].bitTorrentApp.bitTorrentClient.contentManager_26  TotalBytesUploaded:vector  ETV
attr source  ContentManager_TotalBytesUploaded
attr title  "Total of Bytes Uploaded, vector"
attr unit  B
vector 919  BasicTopology.peer[11].bitTorrentApp.bitTorrentClient.contentManager_26  PiecesDownloaded:vector  ETV
attr source  ContentManager_PieceDownloaded
attr title  "Pieces Downloaded, vector"
vector 921  BasicTopology.peer[11].bitTorrentApp.bitTorrentClient.contentManager_26  TotalBytesUploaded:vector  ETV
attr source  ContentManager_TotalBytesUploaded
attr title  "Total of Bytes Uploaded, vector"
attr unit  B
vector 983  BasicTopology.peer[19].bitTorrentApp.bitTorrentClient.contentManager_26  PiecesDownloaded:vector  ETV
attr source  ContentManager_PieceDownloaded
attr title  "Pieces Downloaded, vector"
vector 895  BasicTopology.peer[8].bitTorrentApp.bitTorrentClient.contentManager_26  PiecesDownloaded:vector  ETV
attr source  ContentManager_PieceDownloaded
attr title  "Pieces Downloaded, vector"
vector 897  BasicTopology.peer[8].bitTorrentApp.bitTorrentClient.contentManager_26  TotalBytesUploaded:vector  ETV
attr source  ContentManager_TotalBytesUploaded
attr title  "Total of Bytes Uploaded, vector"
attr unit  B
vector 857  BasicTopology.peer[3].bitTorrentApp.bitTorrentClient.contentManager_26  TotalBytesUploaded:vector  ETV
attr source  ContentManager_TotalBytesUploaded
attr title  "Total of Bytes Uploaded, vector"
attr unit  B
vector 887  BasicTopology.peer[7].bitTorrentApp.bitTorrentClient.contentManager_26  PiecesDownloaded:vector  ETV
attr source  ContentManager_PieceDownloaded
attr title  "Pieces Downloaded, vector"
vector 975  BasicTopology.peer[18].bitTorrentApp.bitTorrentClient.contentManager_26  PiecesDownloaded:vector  ETV
attr source  ContentManager_PieceDownloaded
attr title  "Pieces Downloaded, vector"
vector 951  BasicTopology.peer[15].bitTorrentApp.bitTorrentClient.contentManager_26  PiecesDownloaded:vector  ETV
attr source  ContentManager_PieceDownloaded
attr title  "Pieces Downloaded, vector"
vector 873  BasicTopology.peer[5].bitTorrentApp.bitTorrentClient.contentManager_26  TotalBytesUploaded:vector  ETV
attr source  ContentManager_TotalBytesUploaded
attr title  "Total of Bytes Uploaded, vector"
attr unit  B
vector 889  BasicTopology.peer[7].bitTorrentApp.bitTorrentClient.contentManager_26  TotalBytesUploaded:vector  ETV
attr source  ContentManager_TotalBytesUploaded
attr title  "Total of Bytes Uploaded, vector"
attr unit  B
vector 953  BasicTopology.peer[15].bitTorrentApp.bitTorrentClient.contentManager_26  TotalBytesUploaded:vector  ETV
attr source  ContentManager_TotalBytesUploaded
attr title  "Total of Bytes Uploaded, vector"
attr unit  B
vector 881  BasicTopology.peer[6].bitTorrentApp.bitTorrentClient.contentManager_26  TotalBytesUploaded:vector  ETV
attr source  ContentManager_TotalBytesUploaded
attr title  "Total of Bytes Uploaded, vector"
attr unit  B
vector 969  BasicTopology.peer[17].bitTorrentApp.bitTorrentClient.contentManager_26  TotalBytesUploaded:vector  ETV
attr source  ContentManager_TotalBytesUploaded
attr title  "Total of Bytes Uploaded, vector"
attr unit  B
vector 1025  BasicTopology.peer[24].bitTorrentApp.bitTorrentClient.contentManager_26  TotalBytesUploaded:vector  ETV
attr source  ContentManager_TotalBytesUploaded
attr title  "Total of Bytes Uploaded, vector"
attr unit  B
vector 865  BasicTopology.peer[4].bitTorrentApp.bitTorrentClient.contentManager_26  TotalBytesUploaded:vector  ETV
attr source  ContentManager_TotalBytesUploaded
attr title  "Total of Bytes Uploaded, vector"
attr unit  B
vector 905  BasicTopology.peer[9].bitTorrentApp.bitTorrentClient.contentManager_26  TotalBytesUploaded:vector  ETV
attr source  ContentManager_TotalBytesUploaded
attr title  "Total of Bytes Uploaded, vector"
attr unit  B
vector 927  BasicTopology.peer[12].bitTorrentApp.bitTorrentClient.contentManager_26  PiecesDownloaded:vector  ETV
attr source  ContentManager_PieceDownloaded
attr title  "Pieces Downloaded, vector"
vector 929  BasicTopology.peer[12].bitTorrentApp.bitTorrentClient.contentManager_26  TotalBytesUploaded:vector  ETV
attr source  ContentManager_TotalBytesUploaded
attr title  "Total of Bytes Uploaded, vector"
attr unit  B
vector 985  BasicTopology.peer[19].bitTorrentApp.bitTorrentClient.contentManager_26  TotalBytesUploaded:vector  ETV
attr source  ContentManager_TotalBytesUploaded
attr title  "Total of Bytes Uploaded, vector"
attr unit  B
3	85	36001	36001
3	36052731	36065.095099829119	36065.095099829
5	86	36001	36001
5	68847535	36129.661675316273	36129.661675316
7	87	36001	36001
7	55487905	36101.065482309839	36101.06548231
9	88	36001	36001
9	69487222	36131.072144332655	36131.072144333
11	89	36001	36001
11	71789745	36135.864184008395	36135.864184008
13	90	36001	36001
13	59422575	36109.913853633636	36109.913853634
15	91	36001	36001
15	75047418	36143.472960853375	36143.472960853
17	92	36001	36001
17	59484008	36110.027521891191	36110.027521891
19	93	36001	36001
19	74037355	36141.218730389141	36141.218730389
21	94	36001	36001
21	36445118	36065.868833470765	36065.868833471
23	95	36001	36001
23	66047793	36123.690024880398	36123.69002488
25	96	36001	36001
25	82984487	36161.535234026151	36161.535234026
27	97	36001	36001
27	81658693	36157.958103054175	36157.958103054
29	98	36001	36001
29	81413543	36157.488903027837	36157.488903028
31	99	36001	36001
31	84043920	36164.448663999783	36164.448664
33	100	36001	36001
33	83553214	36163.424853424957	36163.424853425
35	101	36001	36001
35	81324974	36156.914784248493	36156.914784248
37	102	36001	36001
37	82006195	36158.588090078109	36158.588090078
39	103	36001	36001
39	83975759	36164.251338475997	36164.251338476
41	104	36001	36001
41	35336493	36063.757259489066	36063.757259489
43	105	36001	36001
43	32138209	36058.331087268067	36058.331087268
45	106	36001	36001
45	41133978	36074.110431108958	36074.110431109
47	107	36001	36001
47	47901692	36085.934072808443	36085.934072808
49	108	36001	36001
49	70738491	36133.66340907859	36133.663409079
833	105840	36001.083043094312	32768
833	106556	36001.083951598378	65536
833	107101	36001.08472378018	98304
833	109666	36001.087790619481	131072
833	109710	36001.087923881271	163840
833	110691	36001.088995857206	196608
833	120132	36001.103195027725	229376
833	120284	36001.103892604501	262144
833	123462	36001.114508918733	294912
833	136812	36001.132651722618	327680
833	157761	36001.160433096075	360448
833	158659	36001.161628318078	393216
833	168904	36001.175910459581	425984
833	175683	36001.184775272694	458752
833	176018	36001.185233214799	491520
833	177657	36001.187836563108	524288
833	180049	36001.191907860961	557056
833	182576	36001.211708263644	589824
833	182578	36001.213403297977	622592
833	182580	36001.214015353267	655360
833	468298	36002.587132214424	688128
833	481926	36002.629914175619	720896
833	483188	36002.634171234272	753664
833	485410	36002.639141198326	786432
833	491909	36002.64932263037	819200
833	495700	36002.662788031556	851968
833	495962	36002.663361614114	884736
833	496044	36002.663629289251	917504
833	496516	36002.664474425848	950272
833	499217	36002.670720441212	983040
833	499342	36002.670968853354	1015808
833	499651	36002.671728114778	1048576
833	500425	36002.673259943914	1081344
833	506512	36002.685810572805	1114112
833	510319	36002.694569089837	1146880
833	521325	36002.724654412298	1179648
833	521539	36002.725502723053	1212416
833	521658	36002.725758269975	1245184
833	523445	36002.733227461994	1277952
833	530324	36002.760077495649	1310720
833	537279	36002.782299050284	1343488
833	537445	36002.78266846687	1376256
833	537541	36002.78293271817	1409024
833	549096	36002.829742292025	1441792
833	567369	36002.898310522028	1474560
833	615782	36003.712764263084	1507328
833	705766	36003.965841660828	1540096
833	884739	36004.159055086756	1572864
833	1131351	36005.09195832771	1605632
833	1211714	36005.2535460771	1638400
833	1260474	36005.35606567696	1671168
833	1276010	36005.418701673429	1703936
833	1290648	36005.488264977099	1736704
833	1293195	36005.526308412905	1769472
833	1301602	36005.554650065846	1802240
833	1302953	36005.563340694366	1835008
833	1303698	36005.58452116787	1867776
833	1303819	36005.594893938016	1900544
833	1303821	36005.59521189796	1933312
833	1303825	36005.596938650826	1966080
833	1352423	36006.193964034276	1998848
833	1382056	36006.293652671959	2031616
833	1391181	36006.320228953954	2064384
833	1402146	36006.351434977012	2097152
833	1426659	36006.417286094809	2129920
833	1445084	36006.513856756484	2162688
833	1462034	36006.589791976563	2195456
833	1493079	36006.690986793118	2228224
833	1813093	36007.446568999374	2260992
833	1833180	36007.500443467059	2293760
833	1915804	36007.782560177657	2326528
833	2245640	36008.543284747334	2359296
833	2429660	36008.943693498954	2392064
833	2459609	36009.017868582348	2424832
833	2625307	36009.407159296253	2457600
833	2683979	36009.542255193753	2490368
833	2771558	36009.713083804039	2523136
833	2805896	36009.776596039865	2555904
833	2858758	36009.868605302044	2588672
833	2907841	36009.95860778377	2621440
833	3091760	36010.18844715861	2654208
833	3092865	36010.190665428454	2686976
833	3099801	36010.207952303543	2719744
833	3635163	36011.660160024905	2752512
833	3674293	36011.734912667192	2785280
833	3830215	36012.110630552414	2818048
833	4815617	36014.218966110362	2850816
833	4859523	36014.29068295457	2883584
833	5347750	36015.22978496573	2916352
833	5713014	36015.881391685206	2949120
833	6997764	36018.09208538887	2981888
833	8190866	36020.407946935113	3014656
833	8249245	36020.508947986085	3047424
833	8387405	36020.73042843245	3080192
833	8448718	36020.813622018516	3112960
833	8547077	36020.938406375855	3145728
833	8591050	36021.001013993749	3178496
833	8641509	36021.080537931494	3211264
833	8641931	36021.081068612533	3244032
833	8642265	36021.081470935217	3276800
833	8644556	36021.087219324847	3309568
833	8645109	36021.088704797757	3342336
833	8646095	36021.091301399027	3375104
833	8650604	36021.102466581159	3407872
833	8650764	36021.102782410049	3440640
833	8660354	36021.115937198496	3473408
833	8674042	36021.137826253002	3506176
833	8680674	36021.148474675541	3538944
833	8793484	36021.37577892233	3571712
833	9199871	36022.154298517365	3604480
833	9273069	36022.279474736149	3637248
833	9306635	36022.346917651909	3670016
833	9358025	36022.442335073788	3702784
833	9445362	36022.567336694412	3735552
833	9513512	36022.657286918037	3768320
833	9929524	36023.55496155264	3801088
833	9969969	36023.638772610726	3833856
833	10069830	36023.799128317418	3866624
833	10118578	36023.868527188927	3899392
833	10154270	36023.913410552066	3932160
833	10227435	36024.014903313636	3964928
833	10317618	36024.140950865575	3997696
833	10596231	36024.574521201561	4030464
833	11022963	36025.248455006299	4063232
833	11478531	36026.002097426274	4096000
833	11481788	36026.008073890361	4128768
833	11677065	36026.363254214068	4161536
833	11758214	36026.495025043714	4194304
833	12839216	36028.321732135439	4227072
833	12930582	36028.482531813365	4259840
833	14282931	36030.623975195193	4292608
833	14338806	36030.712746185877	4325376
833	14369213	36030.771340469127	4358144
833	14381482	36030.792401138989	4390912
833	14511198	36030.998227516002	4423680
833	14555446	36031.065790186463	4456448
833	14562189	36031.075325927601	4489216
833	14564576	36031.078523831233	4521984
833	14569358	36031.084752872336	4554752
833	14569401	36031.084827569027	4587520
833	14570149	36031.086097273348	4620288
833	14573357	36031.090489091597	4653056
833	14573835	36031.090942111826	4685824
833	14574316	36031.091451605638	4718592
833	14574929	36031.092353507891	4751360
833	15007833	36031.875602738313	4784128
833	15157728	36032.155214074405	4816896
833	15225412	36032.261051333941	4849664
833	15244517	36032.29257661387	4882432
833	15725303	36033.270937599114	4915200
833	15759280	36033.323251853168	4947968
833	15813749	36033.399436168312	4980736
833	15857396	36033.454207639301	5013504
833	16109975	36033.968450015818	5046272
833	16172992	36034.067302003352	5079040
833	16452050	36034.503933476743	5111808
833	16796107	36035.154057631882	5144576
833	17006552	36035.529230748431	5177344
833	17012905	36035.54051181872	5210112
833	17061555	36035.616739649704	5242880
833	17088540	36035.655745501952	5275648
833	17106276	36035.684639159456	5308416
833	17131728	36035.724542376066	5341184
833	17167019	36035.77679323237	5373952
833	17197200	36035.826286242956	5406720
833	17495850	36036.256949117738	5439488
833	17848441	36036.886976556163	5472256
833	17850618	36036.893343476947	5505024
833	17858706	36036.908009968835	5537792
833	17867376	36036.921635425541	5570560
833	17874327	36036.933344302271	5603328
833	17875260	36036.934527616758	5636096
833	17875704	36036.935080780765	5668864
833	17876067	36036.935476402942	5701632
833	17979806	36037.118197858815	5734400
833	18027794	36037.186170614924	5767168
833	18090938	36037.272546541305	5799936
833	18120643	36037.30453347791	5832704
833	18128488	36037.315570570495	5865472
833	18130543	36037.319005386248	5898240
833	18141676	36037.337525574147	5931008
833	18151899	36037.351258310202	5963776
833	18191305	36037.411433049972	5996544
833	18195928	36037.418659518712	6029312
833	18709517	36038.330347513084	6062080
833	18733335	36038.355728580729	6094848
833	18774237	36038.402108573003	6127616
833	18815984	36038.45049843951	6160384
833	19543289	36039.568640572678	6193152
833	20097339	36040.395525835705	6225920
833	20210302	36040.574917083985	6258688
833	20870332	36041.556739768067	6291456
833	20930821	36041.656801583319	6324224
833	21023221	36041.801001492589	6356992
833	23119964	36044.747143659372	6389760
833	23175367	36044.81468020397	6422528
833	23232316	36044.877779403534	6455296
833	26742599	36049.990846587915	6488064
833	28138965	36051.998923773064	6520832
833	28213144	36052.116875472768	6553600
833	28703478	36052.927839905989	6586368