version 2
run Test-13-20200526-12:15:15-5275
attr configname Test
attr datetime 20200526-12:15:15
attr experiment "\"Simulation Test\""
attr inifile BasicConfig.ini
attr iterationvars ""
attr iterationvars2 $repetition=13
attr measurement "\"Peers: $peers, Rate: $rate\""
attr network BasicTopology
attr processid 5275
attr repetition 13
attr replication #13
attr resultdir results
attr runnumber 13
attr seedset 13

vector 3  BasicTopology.peer[1].bitTorrentApp.bitTorrentClient  DownloadComplete_Test:vector  ETV
attr source  BitTorrentClient_DownloadComplete_Test
attr title  "Descargas completas (prueba), vector"
vector 5  BasicTopology.peer[2].bitTorrentApp.bitTorrentClient  DownloadComplete_Test:vector  ETV
attr source  BitTorrentClient_DownloadComplete_Test
attr title  "Descargas completas (prueba), vector"
vector 7  BasicTopology.peer[3].bitTorrentApp.bitTorrentClient  DownloadComplete_Test:vector  ETV
attr source  BitTorrentClient_DownloadComplete_Test
attr title  "Descargas completas (prueba), vector"
vector 9  BasicTopology.peer[4].bitTorrentApp.bitTorrentClient  DownloadComplete_Test:vector  ETV
attr source  BitTorrentClient_DownloadComplete_Test
attr title  "Descargas completas (prueba), vector"
vector 11  BasicTopology.peer[5].bitTorrentApp.bitTorrentClient  DownloadComplete_Test:vector  ETV
attr source  BitTorrentClient_DownloadComplete_Test
attr title  "Descargas completas (prueba), vector"
vector 13  BasicTopology.peer[6].bitTorrentApp.bitTorrentClient  DownloadComplete_Test:vector  ETV
attr source  BitTorrentClient_DownloadComplete_Test
attr title  "Descargas completas (prueba), vector"
vector 15  BasicTopology.peer[7].bitTorrentApp.bitTorrentClient  DownloadComplete_Test:vector  ETV
attr source  BitTorrentClient_DownloadComplete_Test
attr title  "Descargas completas (prueba), vector"
vector 17  BasicTopology.peer[8].bitTorrentApp.bitTorrentClient  DownloadComplete_Test:vector  ETV
attr source  BitTorrentClient_DownloadComplete_Test
attr title  "Descargas completas (prueba), vector"
vector 19  BasicTopology.peer[9].bitTorrentApp.bitTorrentClient  DownloadComplete_Test:vector  ETV
attr source  BitTorrentClient_DownloadComplete_Test
attr title  "Descargas completas (prueba), vector"
vector 21  BasicTopology.peer[10].bitTorrentApp.bitTorrentClient  DownloadComplete_Test:vector  ETV
attr source  BitTorrentClient_DownloadComplete_Test
attr title  "Descargas completas (prueba), vector"
vector 23  BasicTopology.peer[11].bitTorrentApp.bitTorrentClient  DownloadComplete_Test:vector  ETV
attr source  BitTorrentClient_DownloadComplete_Test
attr title  "Descargas completas (prueba), vector"
vector 25  BasicTopology.peer[12].bitTorrentApp.bitTorrentClient  DownloadComplete_Test:vector  ETV
attr source  BitTorrentClient_DownloadComplete_Test
attr title  "Descargas completas (prueba), vector"
vector 27  BasicTopology.peer[13].bitTorrentApp.bitTorrentClient  DownloadComplete_Test:vector  ETV
attr source  BitTorrentClient_DownloadComplete_Test
attr title  "Descargas completas (prueba), vector"
vector 29  BasicTopology.peer[14].bitTorrentApp.bitTorrentClient  DownloadComplete_Test:vector  ETV
attr source  BitTorrentClient_DownloadComplete_Test
attr title  "Descargas completas (prueba), vector"
vector 31  BasicTopology.peer[15].bitTorrentApp.bitTorrentClient  DownloadComplete_Test:vector  ETV
attr source  BitTorrentClient_DownloadComplete_Test
attr title  "Descargas completas (prueba), vector"
vector 33  BasicTopology.peer[16].bitTorrentApp.bitTorrentClient  DownloadComplete_Test:vector  ETV
attr source  BitTorrentClient_DownloadComplete_Test
attr title  "Descargas completas (prueba), vector"
vector 35  BasicTopology.peer[17].bitTorrentApp.bitTorrentClient  DownloadComplete_Test:vector  ETV
attr source  BitTorrentClient_DownloadComplete_Test
attr title  "Descargas completas (prueba), vector"
vector 37  BasicTopology.peer[18].bitTorrentApp.bitTorrentClient  DownloadComplete_Test:vector  ETV
attr source  BitTorrentClient_DownloadComplete_Test
attr title  "Descargas completas (prueba), vector"
vector 39  BasicTopology.peer[19].bitTorrentApp.bitTorrentClient  DownloadComplete_Test:vector  ETV
attr source  BitTorrentClient_DownloadComplete_Test
attr title  "Descargas completas (prueba), vector"
vector 41  BasicTopology.peer[20].bitTorrentApp.bitTorrentClient  DownloadComplete_Test:vector  ETV
attr source  BitTorrentClient_DownloadComplete_Test
attr title  "Descargas completas (prueba), vector"
vector 43  BasicTopology.peer[21].bitTorrentApp.bitTorrentClient  DownloadComplete_Test:vector  ETV
attr source  BitTorrentClient_DownloadComplete_Test
attr title  "Descargas completas (prueba), vector"
vector 45  BasicTopology.peer[22].bitTorrentApp.bitTorrentClient  DownloadComplete_Test:vector  ETV
attr source  BitTorrentClient_DownloadComplete_Test
attr title  "Descargas completas (prueba), vector"
vector 47  BasicTopology.peer[23].bitTorrentApp.bitTorrentClient  DownloadComplete_Test:vector  ETV
attr source  BitTorrentClient_DownloadComplete_Test
attr title  "Descargas completas (prueba), vector"
vector 49  BasicTopology.peer[24].bitTorrentApp.bitTorrentClient  DownloadComplete_Test:vector  ETV
attr source  BitTorrentClient_DownloadComplete_Test
attr title  "Descargas completas (prueba), vector"
vector 833  BasicTopology.peer[0].bitTorrentApp.bitTorrentClient.contentManager_26  TotalBytesUploaded:vector  ETV
attr source  ContentManager_TotalBytesUploaded
attr title  "Total of Bytes Uploaded, vector"
attr unit  B
vector 840  BasicTopology.peer[1].bitTorrentApp.bitTorrentClient.contentManager_26  TotalBytesDownloaded:vector  ETV
attr source  ContentManager_TotalBytesDownloaded
attr title  "Total of Bytes Downloaded, vector"
attr unit  B
vector 848  BasicTopology.peer[2].bitTorrentApp.bitTorrentClient.contentManager_26  TotalBytesDownloaded:vector  ETV
attr source  ContentManager_TotalBytesDownloaded
attr title  "Total of Bytes Downloaded, vector"
attr unit  B
vector 912  BasicTopology.peer[10].bitTorrentApp.bitTorrentClient.contentManager_26  TotalBytesDownloaded:vector  ETV
attr source  ContentManager_TotalBytesDownloaded
attr title  "Total of Bytes Downloaded, vector"
attr unit  B
vector 847  BasicTopology.peer[2].bitTorrentApp.bitTorrentClient.contentManager_26  PiecesDownloaded:vector  ETV
attr source  ContentManager_PieceDownloaded
attr title  "Pieces Downloaded, vector"
vector 849  BasicTopology.peer[2].bitTorrentApp.bitTorrentClient.contentManager_26  TotalBytesUploaded:vector  ETV
attr source  ContentManager_TotalBytesUploaded
attr title  "Total of Bytes Uploaded, vector"
attr unit  B
vector 911  BasicTopology.peer[10].bitTorrentApp.bitTorrentClient.contentManager_26  PiecesDownloaded:vector  ETV
attr source  ContentManager_PieceDownloaded
attr title  "Pieces Downloaded, vector"
vector 913  BasicTopology.peer[10].bitTorrentApp.bitTorrentClient.contentManager_26  TotalBytesUploaded:vector  ETV
attr source  ContentManager_TotalBytesUploaded
attr title  "Total of Bytes Uploaded, vector"
attr unit  B
vector 864  BasicTopology.peer[4].bitTorrentApp.bitTorrentClient.contentManager_26  TotalBytesDownloaded:vector  ETV
attr source  ContentManager_TotalBytesDownloaded
attr title  "Total of Bytes Downloaded, vector"
attr unit  B
vector 839  BasicTopology.peer[1].bitTorrentApp.bitTorrentClient.contentManager_26  PiecesDownloaded:vector  ETV
attr source  ContentManager_PieceDownloaded
attr title  "Pieces Downloaded, vector"
vector 841  BasicTopology.peer[1].bitTorrentApp.bitTorrentClient.contentManager_26  TotalBytesUploaded:vector  ETV
attr source  ContentManager_TotalBytesUploaded
attr title  "Total of Bytes Uploaded, vector"
attr unit  B
vector 920  BasicTopology.peer[11].bitTorrentApp.bitTorrentClient.contentManager_26  TotalBytesDownloaded:vector  ETV
attr source  ContentManager_TotalBytesDownloaded
attr title  "Total of Bytes Downloaded, vector"
attr unit  B
vector 888  BasicTopology.peer[7].bitTorrentApp.bitTorrentClient.contentManager_26  TotalBytesDownloaded:vector  ETV
attr source  ContentManager_TotalBytesDownloaded
attr title  "Total of Bytes Downloaded, vector"
attr unit  B
vector 968  BasicTopology.peer[17].bitTorrentApp.bitTorrentClient.contentManager_26  TotalBytesDownloaded:vector  ETV
attr source  ContentManager_TotalBytesDownloaded
attr title  "Total of Bytes Downloaded, vector"
attr unit  B
vector 944  BasicTopology.peer[14].bitTorrentApp.bitTorrentClient.contentManager_26  TotalBytesDownloaded:vector  ETV
attr source  ContentManager_TotalBytesDownloaded
attr title  "Total of Bytes Downloaded, vector"
attr unit  B
vector 863  BasicTopology.peer[4].bitTorrentApp.bitTorrentClient.contentManager_26  PiecesDownloaded:vector  ETV
attr source  ContentManager_PieceDownloaded
attr title  "Pieces Downloaded, vector"
vector 865  BasicTopology.peer[4].bitTorrentApp.bitTorrentClient.contentManager_26  TotalBytesUploaded:vector  ETV
attr source  ContentManager_TotalBytesUploaded
attr title  "Total of Bytes Uploaded, vector"
attr unit  B
vector 856  BasicTopology.peer[3].bitTorrentApp.bitTorrentClient.contentManager_26  TotalBytesDownloaded:vector  ETV
attr source  ContentManager_TotalBytesDownloaded
attr title  "Total of Bytes Downloaded, vector"
attr unit  B
vector 936  BasicTopology.peer[13].bitTorrentApp.bitTorrentClient.contentManager_26  TotalBytesDownloaded:vector  ETV
attr source  ContentManager_TotalBytesDownloaded
attr title  "Total of Bytes Downloaded, vector"
attr unit  B
vector 880  BasicTopology.peer[6].bitTorrentApp.bitTorrentClient.contentManager_26  TotalBytesDownloaded:vector  ETV
attr source  ContentManager_TotalBytesDownloaded
attr title  "Total of Bytes Downloaded, vector"
attr unit  B
vector 919  BasicTopology.peer[11].bitTorrentApp.bitTorrentClient.contentManager_26  PiecesDownloaded:vector  ETV
attr source  ContentManager_PieceDownloaded
attr title  "Pieces Downloaded, vector"
vector 921  BasicTopology.peer[11].bitTorrentApp.bitTorrentClient.contentManager_26  TotalBytesUploaded:vector  ETV
attr source  ContentManager_TotalBytesUploaded
attr title  "Total of Bytes Uploaded, vector"
attr unit  B
vector 1000  BasicTopology.peer[21].bitTorrentApp.bitTorrentClient.contentManager_26  TotalBytesDownloaded:vector  ETV
attr source  ContentManager_TotalBytesDownloaded
attr title  "Total of Bytes Downloaded, vector"
attr unit  B
vector 952  BasicTopology.peer[15].bitTorrentApp.bitTorrentClient.contentManager_26  TotalBytesDownloaded:vector  ETV
attr source  ContentManager_TotalBytesDownloaded
attr title  "Total of Bytes Downloaded, vector"
attr unit  B
vector 872  BasicTopology.peer[5].bitTorrentApp.bitTorrentClient.contentManager_26  TotalBytesDownloaded:vector  ETV
attr source  ContentManager_TotalBytesDownloaded
attr title  "Total of Bytes Downloaded, vector"
attr unit  B
vector 992  BasicTopology.peer[20].bitTorrentApp.bitTorrentClient.contentManager_26  TotalBytesDownloaded:vector  ETV
attr source  ContentManager_TotalBytesDownloaded
attr title  "Total of Bytes Downloaded, vector"
attr unit  B
vector 896  BasicTopology.peer[8].bitTorrentApp.bitTorrentClient.contentManager_26  TotalBytesDownloaded:vector  ETV
attr source  ContentManager_TotalBytesDownloaded
attr title  "Total of Bytes Downloaded, vector"
attr unit  B
vector 935  BasicTopology.peer[13].bitTorrentApp.bitTorrentClient.contentManager_26  PiecesDownloaded:vector  ETV
attr source  ContentManager_PieceDownloaded
attr title  "Pieces Downloaded, vector"
vector 1016  BasicTopology.peer[23].bitTorrentApp.bitTorrentClient.contentManager_26  TotalBytesDownloaded:vector  ETV
attr source  ContentManager_TotalBytesDownloaded
attr title  "Total of Bytes Downloaded, vector"
attr unit  B
vector 928  BasicTopology.peer[12].bitTorrentApp.bitTorrentClient.contentManager_26  TotalBytesDownloaded:vector  ETV
attr source  ContentManager_TotalBytesDownloaded
attr title  "Total of Bytes Downloaded, vector"
attr unit  B
vector 991  BasicTopology.peer[20].bitTorrentApp.bitTorrentClient.contentManager_26  PiecesDownloaded:vector  ETV
attr source  ContentManager_PieceDownloaded
attr title  "Pieces Downloaded, vector"
vector 855  BasicTopology.peer[3].bitTorrentApp.bitTorrentClient.contentManager_26  PiecesDownloaded:vector  ETV
attr source  ContentManager_PieceDownloaded
attr title  "Pieces Downloaded, vector"
vector 857  BasicTopology.peer[3].bitTorrentApp.bitTorrentClient.contentManager_26  TotalBytesUploaded:vector  ETV
attr source  ContentManager_TotalBytesUploaded
attr title  "Total of Bytes Uploaded, vector"
attr unit  B
vector 1008  BasicTopology.peer[22].bitTorrentApp.bitTorrentClient.contentManager_26  TotalBytesDownloaded:vector  ETV
attr source  ContentManager_TotalBytesDownloaded
attr title  "Total of Bytes Downloaded, vector"
attr unit  B
vector 976  BasicTopology.peer[18].bitTorrentApp.bitTorrentClient.contentManager_26  TotalBytesDownloaded:vector  ETV
attr source  ContentManager_TotalBytesDownloaded
attr title  "Total of Bytes Downloaded, vector"
attr unit  B
vector 951  BasicTopology.peer[15].bitTorrentApp.bitTorrentClient.contentManager_26  PiecesDownloaded:vector  ETV
attr source  ContentManager_PieceDownloaded
attr title  "Pieces Downloaded, vector"
vector 984  BasicTopology.peer[19].bitTorrentApp.bitTorrentClient.contentManager_26  TotalBytesDownloaded:vector  ETV
attr source  ContentManager_TotalBytesDownloaded
attr title  "Total of Bytes Downloaded, vector"
attr unit  B
vector 937  BasicTopology.peer[13].bitTorrentApp.bitTorrentClient.contentManager_26  TotalBytesUploaded:vector  ETV
attr source  ContentManager_TotalBytesUploaded
attr title  "Total of Bytes Uploaded, vector"
attr unit  B
vector 1024  BasicTopology.peer[24].bitTorrentApp.bitTorrentClient.contentManager_26  TotalBytesDownloaded:vector  ETV
attr source  ContentManager_TotalBytesDownloaded
attr title  "Total of Bytes Downloaded, vector"
attr unit  B
vector 960  BasicTopology.peer[16].bitTorrentApp.bitTorrentClient.contentManager_26  TotalBytesDownloaded:vector  ETV
attr source  ContentManager_TotalBytesDownloaded
attr title  "Total of Bytes Downloaded, vector"
attr unit  B
vector 1007  BasicTopology.peer[22].bitTorrentApp.bitTorrentClient.contentManager_26  PiecesDownloaded:vector  ETV
attr source  ContentManager_PieceDownloaded
attr title  "Pieces Downloaded, vector"
vector 943  BasicTopology.peer[14].bitTorrentApp.bitTorrentClient.contentManager_26  PiecesDownloaded:vector  ETV
attr source  ContentManager_PieceDownloaded
attr title  "Pieces Downloaded, vector"
vector 904  BasicTopology.peer[9].bitTorrentApp.bitTorrentClient.contentManager_26  TotalBytesDownloaded:vector  ETV
attr source  ContentManager_TotalBytesDownloaded
attr title  "Total of Bytes Downloaded, vector"
attr unit  B
vector 967  BasicTopology.peer[17].bitTorrentApp.bitTorrentClient.contentManager_26  PiecesDownloaded:vector  ETV
attr source  ContentManager_PieceDownloaded
attr title  "Pieces Downloaded, vector"
vector 1023  BasicTopology.peer[24].bitTorrentApp.bitTorrentClient.contentManager_26  PiecesDownloaded:vector  ETV
attr source  ContentManager_PieceDownloaded
attr title  "Pieces Downloaded, vector"
vector 959  BasicTopology.peer[16].bitTorrentApp.bitTorrentClient.contentManager_26  PiecesDownloaded:vector  ETV
attr source  ContentManager_PieceDownloaded
attr title  "Pieces Downloaded, vector"
vector 945  BasicTopology.peer[14].bitTorrentApp.bitTorrentClient.contentManager_26  TotalBytesUploaded:vector  ETV
attr source  ContentManager_TotalBytesUploaded
attr title  "Total of Bytes Uploaded, vector"
attr unit  B
vector 1009  BasicTopology.peer[22].bitTorrentApp.bitTorrentClient.contentManager_26  TotalBytesUploaded:vector  ETV
attr source  ContentManager_TotalBytesUploaded
attr title  "Total of Bytes Uploaded, vector"
attr unit  B
vector 871  BasicTopology.peer[5].bitTorrentApp.bitTorrentClient.contentManager_26  PiecesDownloaded:vector  ETV
attr source  ContentManager_PieceDownloaded
attr title  "Pieces Downloaded, vector"
vector 983  BasicTopology.peer[19].bitTorrentApp.bitTorrentClient.contentManager_26  PiecesDownloaded:vector  ETV
attr source  ContentManager_PieceDownloaded
attr title  "Pieces Downloaded, vector"
vector 887  BasicTopology.peer[7].bitTorrentApp.bitTorrentClient.contentManager_26  PiecesDownloaded:vector  ETV
attr source  ContentManager_PieceDownloaded
attr title  "Pieces Downloaded, vector"
vector 889  BasicTopology.peer[7].bitTorrentApp.bitTorrentClient.contentManager_26  TotalBytesUploaded:vector  ETV
attr source  ContentManager_TotalBytesUploaded
attr title  "Total of Bytes Uploaded, vector"
attr unit  B
vector 879  BasicTopology.peer[6].bitTorrentApp.bitTorrentClient.contentManager_26  PiecesDownloaded:vector  ETV
attr source  ContentManager_PieceDownloaded
attr title  "Pieces Downloaded, vector"
vector 873  BasicTopology.peer[5].bitTorrentApp.bitTorrentClient.contentManager_26  TotalBytesUploaded:vector  ETV
attr source  ContentManager_TotalBytesUploaded
attr title  "Total of Bytes Uploaded, vector"
attr unit  B
vector 1015  BasicTopology.peer[23].bitTorrentApp.bitTorrentClient.contentManager_26  PiecesDownloaded:vector  ETV
attr source  ContentManager_PieceDownloaded
attr title  "Pieces Downloaded, vector"
vector 895  BasicTopology.peer[8].bitTorrentApp.bitTorrentClient.contentManager_26  PiecesDownloaded:vector  ETV
attr source  ContentManager_PieceDownloaded
attr title  "Pieces Downloaded, vector"
vector 975  BasicTopology.peer[18].bitTorrentApp.bitTorrentClient.contentManager_26  PiecesDownloaded:vector  ETV
attr source  ContentManager_PieceDownloaded
attr title  "Pieces Downloaded, vector"
vector 993  BasicTopology.peer[20].bitTorrentApp.bitTorrentClient.contentManager_26  TotalBytesUploaded:vector  ETV
attr source  ContentManager_TotalBytesUploaded
attr title  "Total of Bytes Uploaded, vector"
attr unit  B
vector 1017  BasicTopology.peer[23].bitTorrentApp.bitTorrentClient.contentManager_26  TotalBytesUploaded:vector  ETV
attr source  ContentManager_TotalBytesUploaded
attr title  "Total of Bytes Uploaded, vector"
attr unit  B
vector 903  BasicTopology.peer[9].bitTorrentApp.bitTorrentClient.contentManager_26  PiecesDownloaded:vector  ETV
attr source  ContentManager_PieceDownloaded
attr title  "Pieces Downloaded, vector"
vector 881  BasicTopology.peer[6].bitTorrentApp.bitTorrentClient.contentManager_26  TotalBytesUploaded:vector  ETV
attr source  ContentManager_TotalBytesUploaded
attr title  "Total of Bytes Uploaded, vector"
attr unit  B
vector 897  BasicTopology.peer[8].bitTorrentApp.bitTorrentClient.contentManager_26  TotalBytesUploaded:vector  ETV
attr source  ContentManager_TotalBytesUploaded
attr title  "Total of Bytes Uploaded, vector"
attr unit  B
vector 927  BasicTopology.peer[12].bitTorrentApp.bitTorrentClient.contentManager_26  PiecesDownloaded:vector  ETV
attr source  ContentManager_PieceDownloaded
attr title  "Pieces Downloaded, vector"
vector 999  BasicTopology.peer[21].bitTorrentApp.bitTorrentClient.contentManager_26  PiecesDownloaded:vector  ETV
attr source  ContentManager_PieceDownloaded
attr title  "Pieces Downloaded, vector"
vector 1001  BasicTopology.peer[21].bitTorrentApp.bitTorrentClient.contentManager_26  TotalBytesUploaded:vector  ETV
attr source  ContentManager_TotalBytesUploaded
attr title  "Total of Bytes Uploaded, vector"
attr unit  B
vector 1025  BasicTopology.peer[24].bitTorrentApp.bitTorrentClient.contentManager_26  TotalBytesUploaded:vector  ETV
attr source  ContentManager_TotalBytesUploaded
attr title  "Total of Bytes Uploaded, vector"
attr unit  B
vector 961  BasicTopology.peer[16].bitTorrentApp.bitTorrentClient.contentManager_26  TotalBytesUploaded:vector  ETV
attr source  ContentManager_TotalBytesUploaded
attr title  "Total of Bytes Uploaded, vector"
attr unit  B
vector 985  BasicTopology.peer[19].bitTorrentApp.bitTorrentClient.contentManager_26  TotalBytesUploaded:vector  ETV
attr source  ContentManager_TotalBytesUploaded
attr title  "Total of Bytes Uploaded, vector"
attr unit  B
vector 977  BasicTopology.peer[18].bitTorrentApp.bitTorrentClient.contentManager_26  TotalBytesUploaded:vector  ETV
attr source  ContentManager_TotalBytesUploaded
attr title  "Total of Bytes Uploaded, vector"
attr unit  B
vector 969  BasicTopology.peer[17].bitTorrentApp.bitTorrentClient.contentManager_26  TotalBytesUploaded:vector  ETV
attr source  ContentManager_TotalBytesUploaded
attr title  "Total of Bytes Uploaded, vector"
attr unit  B
3	85	36001	36001
3	51884660	36096.135531008016	36096.135531008
5	86	36001	36001
5	53782658	36100.170115753648	36100.170115754
7	87	36001	36001
7	61741996	36117.590009154935	36117.590009155
9	88	36001	36001
9	54217055	36101.0116861793	36101.011686179
11	89	36001	36001
11	73517778	36142.952697372862	36142.952697373
13	90	36001	36001
13	72476922	36140.761605051909	36140.761605052
15	91	36001	36001
15	70460902	36135.908137817445	36135.908137817
17	92	36001	36001
17	78938930	36303.504480538224	36303.504480538
19	93	36001	36001
19	77200902	36152.250931242501	36152.250931243
21	94	36001	36001
21	14856447	36031.78229605287	36031.782296053
23	95	36001	36001
23	44350921	36082.489459361343	36082.489459361
25	96	36001	36001
25	79181157	36306.080763064096	36306.080763064
27	97	36001	36001
27	71989797	36139.376058610388	36139.37605861
29	98	36001	36001
29	64178868	36122.627371709405	36122.627371709
31	99	36001	36001
31	72215164	36140.227771580231	36140.22777158
33	100	36001	36001
33	75890020	36148.760897660394	36148.76089766
35	101	36001	36001
35	75109678	36146.56070080092	36146.560700801
37	102	36001	36001
37	64307341	36122.879687073085	36122.879687073
39	103	36001	36001
39	74927405	36146.031961623417	36146.031961623
41	104	36001	36001
41	40460287	36075.85987694606	36075.859876946
43	105	36001	36001
43	65068378	36124.597788038668	36124.597788039
45	106	36001	36001
45	77699842	36155.431367307474	36155.431367307
47	107	36001	36001
47	47997729	36089.131049106282	36089.131049106
49	108	36001	36001
49	66774399	36128.103856302521	36128.103856303
833	253125	36001.548268227037	32768
833	253662	36001.548797507837	65536
833	253800	36001.54899688814	98304
833	255638	36001.551035647843	131072
833	262815	36001.559313192392	163840
833	263713	36001.560094661845	196608
833	263805	36001.560168090641	229376
833	278957	36001.573295209678	262144
833	289144	36001.597708010346	294912
833	289699	36001.613523755883	327680
833	314324	36001.664973663823	360448
833	333307	36001.691095430578	393216
833	333418	36001.691492048151	425984
833	333992	36001.694252568207	458752
833	334036	36001.694739602747	491520
833	346429	36001.733500201993	524288
833	346431	36001.733796607349	557056
833	346980	36001.738734017079	589824
833	346983	36001.73877741872	622592
833	351435	36001.753584041769	655360
833	370267	36001.82912005721	688128
833	410347	36001.977307003776	720896
833	575981	36002.781469629702	753664
833	576009	36002.781484139365	786432
833	577154	36002.78554969171	819200
833	582151	36002.805235810404	851968
833	582398	36002.806346683989	884736
833	582410	36002.806410729896	917504
833	582626	36002.807282437117	950272
833	586721	36002.82076108034	983040
833	586954	36002.833952932981	1015808
833	586957	36002.846923596237	1048576
833	607733	36002.930080975693	1081344
833	614979	36002.951734391704	1114112
833	631262	36003.000081591808	1146880
833	681985	36003.121395263928	1179648
833	695398	36003.1632548562	1212416
833	722099	36003.247755392014	1245184
833	739740	36003.993534461697	1277952
833	753012	36004.006263315539	1310720
833	853509	36004.119295271382	1343488
833	854025	36004.120068401696	1376256
833	854559	36004.120565009349	1409024
833	854883	36004.120786731128	1441792
833	855145	36004.120986804721	1474560
833	855944	36004.121687608531	1507328
833	856191	36004.121891381954	1540096
833	857053	36004.122567776517	1572864
833	857382	36004.122865723824	1605632
833	858307	36004.123739592652	1638400
833	931672	36004.299406409823	1671168
833	952678	36004.363339581368	1703936
833	976798	36004.44099539661	1736704
833	1171425	36005.033898776826	1769472
833	1179284	36005.045884178699	1802240
833	1200579	36005.083355368279	1835008
833	1212899	36005.098442842629	1867776
833	1232376	36005.123438441787	1900544
833	1253035	36005.154297457158	1933312
833	1267550	36005.173598963588	1966080
833	1358612	36005.503580905968	1998848
833	1571481	36006.058766466868	2031616
833	1578964	36006.084551188867	2064384
833	1587320	36006.113079406171	2097152
833	1598492	36006.150660422429	2129920
833	1614689	36006.194404725584	2162688
833	1623677	36006.220748058675	2195456
833	1638019	36006.252692094187	2228224
833	1644320	36006.269547380736	2260992
833	1657833	36006.305060487266	2293760
833	1751271	36006.574709721078	2326528
833	1770595	36006.635621259489	2359296
833	1788755	36006.693679847231	2392064
833	2008629	36007.215730163377	2424832
833	2036078	36007.286521785227	2457600
833	2050781	36007.331471872379	2490368
833	2061357	36007.362086432947	2523136
833	2078654	36007.399258351073	2555904
833	2083764	36007.413652829213	2588672
833	2105931	36007.467986053835	2621440
833	2106531	36007.468469548053	2654208
833	2495125	36008.333873468934	2686976
833	2537655	36008.407282108078	2719744
833	2546268	36008.423021742561	2752512
833	2565577	36008.474528074104	2785280
833	2597093	36008.530247846168	2818048
833	2626797	36008.588676318172	2850816
833	2636706	36008.617468012965	2883584
833	3021131	36009.584402219539	2916352
833	3049104	36009.648147699607	2949120
833	3068516	36009.68331117164	2981888
833	3158230	36009.867037090004	3014656
833	3560714	36010.722403105537	3047424
833	3560781	36010.722601447914	3080192
833	3560890	36010.722889433978	3112960
833	3579691	36010.776145883271	3145728
833	3590496	36010.798040209337	3178496
833	3604516	36010.827581721281	3211264
833	3644111	36010.900095963417	3244032
833	3653497	36010.915023433951	3276800
833	3673526	36010.947074234953	3309568
833	3698706	36010.990292693546	3342336
833	3710368	36011.019773702867	3375104
833	3714556	36011.026926072309	3407872
833	3739345	36011.070700249679	3440640
833	3741608	36011.074796880095	3473408
833	3753909	36011.095405208917	3506176
833	4090466	36012.001960605973	3538944
833	4131185	36012.097804128187	3571712
833	4163540	36012.179672537027	3604480
833	4172852	36012.205695077713	3637248
833	4189154	36012.246386644949	3670016
833	4194768	36012.26321235413	3702784
833	4666135	36013.286792684946	3735552
833	4676624	36013.31169524926	3768320
833	4685812	36013.335938687786	3801088
833	4700688	36013.368004033118	3833856
833	4714481	36013.394440856066	3866624
833	4730701	36013.419214308836	3899392
833	4740160	36013.441675959896	3932160
833	5052437	36014.182020696836	3964928
833	5063778	36014.216116414365	3997696
833	5569270	36015.237204657639	4030464
833	5619396	36015.32738005864	4063232
833	5645947	36015.398187350485	4096000
833	5685575	36015.473704208849	4128768
833	5700603	36015.500026306496	4161536
833	5702075	36015.501778258706	4194304
833	5718652	36015.525929100085	4227072
833	5736207	36015.550449232564	4259840
833	5738188	36015.553497065493	4292608
833	6343949	36016.589323610254	4325376
833	6655023	36017.089420661803	4358144
833	6715428	36017.193355648227	4390912
833	6785221	36017.305577307448	4423680
833	7000877	36017.649221051536	4456448
833	7011924	36017.666489968469	4489216
833	7033881	36017.701420675379	4521984
833	7067704	36017.752781623163	4554752
833	7084907	36017.778651313962	4587520
833	7106592	36017.80857550288	4620288
833	7248100	36018.05728264709	4653056
833	7475149	36018.469316574944	4685824
833	7541755	36018.583099699427	4718592
833	7677683	36018.794089194237	4751360
833	7722975	36018.860800743795	4784128
833	7731053	36018.872711825086	4816896
833	7747643	36018.897882439348	4849664
833	7782442	36018.958363359521	4882432
833	8171129	36019.685177334196	4915200
833	8320830	36019.934710411269	4947968
833	8347993	36019.970438238979	4980736
833	8719656	36020.820392305191	5013504
833	8785195	36020.988412872459	5046272
833	8792575	36021.012020979596	5079040
833	8810726	36021.050557148643	5111808
833	9066658	36021.591522053451	5144576
833	9069600	36021.596219136169	5177344
833	9072380	36021.600830281433	5210112
833	9074610	36021.60348876185	5242880
833	9075421	36021.604746562327	5275648
833	9084847	36021.6183227341	5308416
833	9086123	36021.62298428243	5341184
833	9087012	36021.625540619113	5373952
833	9095022	36021.650322384689	5406720
833	9095669	36021.652057875964	5439488
833	9379799	36022.09690204352	5472256
833	9387179	36022.104807359097	5505024
833	9917706	36023.026476856115	5537792
833	9945774	36023.08316168557	5570560
833	9958146	36023.103294456938	5603328
833	9992942	36023.156419319116	5636096
833	10007284	36023.179609115199	5668864
833	10015231	36023.204531796221	5701632
833	10028740	36023.245826588084	5734400
833	10075325	36023.36117980983	5767168
833	10672028	36024.424970812212	5799936
833	10719161	36024.495005368375	5832704
833	10721388	36024.498913108618	5865472
833	11274967	36025.521410214612	5898240
833	11326251	36025.614684439491	5931008
833	11335296	36025.637304236656	5963776
833	11665333	36026.175548855776	5996544
833	11688782	36026.214040765388	6029312
833	11725754	36026.291356718375	6062080
833	11772097	36026.419799778131	6094848
833	11869928	36026.629782317972	6127616
833	11885690	36026.661872511856	6160384
833	12225866	36027.241600512916	6193152
833	12235245	36027.256258466614	6225920
833	12249844	36027.280335937898	6258688
833	12520845	36027.704758860547	6291456
833	12875733	36028.336381614556	6324224
833	12886550	36028.350036931627	6356992
833	12898630	36028.366023490801	6389760
833	13093230	36028.750845980222	6422528
833	13181795	36028.864525084113	6455296
833	13209683	36028.894412955256	6488064
833	13232660	36028.920025746109	6520832
833	13268353	36028.961186317839	6553600
833	13537270	36029.390143350254	6586368
833	13894813	36030.010731045716	6619136
833	13942083	36030.079204436364	6651904
833	14110391	36030.41763077754	6684672
833	14147981	36030.466108572772	6717440
833	14201295	36030.531814255849	6750208
833	14718005	36031.534493158937	6782976
833	14718371	36031.535030427335	6815744