version 2
run Test-17-20200526-12:15:44-5315
attr configname Test
attr datetime 20200526-12:15:44
attr experiment "\"Simulation Test\""
attr inifile BasicConfig.ini
attr iterationvars ""
attr iterationvars2 $repetition=17
attr measurement "\"Peers: $peers, Rate: $rate\""
attr network BasicTopology
attr processid 5315
attr repetition 17
attr replication #17
attr resultdir results
attr runnumber 17
attr seedset 17

vector 3  BasicTopology.peer[1].bitTorrentApp.bitTorrentClient  DownloadComplete_Test:vector  ETV
attr source  BitTorrentClient_DownloadComplete_Test
attr title  "Descargas completas (prueba), vector"
vector 5  BasicTopology.peer[2].bitTorrentApp.bitTorrentClient  DownloadComplete_Test:vector  ETV
attr source  BitTorrentClient_DownloadComplete_Test
attr title  "Descargas completas (prueba), vector"
vector 7  BasicTopology.peer[3].bitTorrentApp.bitTorrentClient  DownloadComplete_Test:vector  ETV
attr source  BitTorrentClient_DownloadComplete_Test
attr title  "Descargas completas (prueba), vector"
vector 9  BasicTopology.peer[4].bitTorrentApp.bitTorrentClient  DownloadComplete_Test:vector  ETV
attr source  BitTorrentClient_DownloadComplete_Test
attr title  "Descargas completas (prueba), vector"
vector 11  BasicTopology.peer[5].bitTorrentApp.bitTorrentClient  DownloadComplete_Test:vector  ETV
attr source  BitTorrentClient_DownloadComplete_Test
attr title  "Descargas completas (prueba), vector"
vector 13  BasicTopology.peer[6].bitTorrentApp.bitTorrentClient  DownloadComplete_Test:vector  ETV
attr source  BitTorrentClient_DownloadComplete_Test
attr title  "Descargas completas (prueba), vector"
vector 15  BasicTopology.peer[7].bitTorrentApp.bitTorrentClient  DownloadComplete_Test:vector  ETV
attr source  BitTorrentClient_DownloadComplete_Test
attr title  "Descargas completas (prueba), vector"
vector 17  BasicTopology.peer[8].bitTorrentApp.bitTorrentClient  DownloadComplete_Test:vector  ETV
attr source  BitTorrentClient_DownloadComplete_Test
attr title  "Descargas completas (prueba), vector"
vector 19  BasicTopology.peer[9].bitTorrentApp.bitTorrentClient  DownloadComplete_Test:vector  ETV
attr source  BitTorrentClient_DownloadComplete_Test
attr title  "Descargas completas (prueba), vector"
vector 21  BasicTopology.peer[10].bitTorrentApp.bitTorrentClient  DownloadComplete_Test:vector  ETV
attr source  BitTorrentClient_DownloadComplete_Test
attr title  "Descargas completas (prueba), vector"
vector 23  BasicTopology.peer[11].bitTorrentApp.bitTorrentClient  DownloadComplete_Test:vector  ETV
attr source  BitTorrentClient_DownloadComplete_Test
attr title  "Descargas completas (prueba), vector"
vector 25  BasicTopology.peer[12].bitTorrentApp.bitTorrentClient  DownloadComplete_Test:vector  ETV
attr source  BitTorrentClient_DownloadComplete_Test
attr title  "Descargas completas (prueba), vector"
vector 27  BasicTopology.peer[13].bitTorrentApp.bitTorrentClient  DownloadComplete_Test:vector  ETV
attr source  BitTorrentClient_DownloadComplete_Test
attr title  "Descargas completas (prueba), vector"
vector 29  BasicTopology.peer[14].bitTorrentApp.bitTorrentClient  DownloadComplete_Test:vector  ETV
attr source  BitTorrentClient_DownloadComplete_Test
attr title  "Descargas completas (prueba), vector"
vector 31  BasicTopology.peer[15].bitTorrentApp.bitTorrentClient  DownloadComplete_Test:vector  ETV
attr source  BitTorrentClient_DownloadComplete_Test
attr title  "Descargas completas (prueba), vector"
vector 33  BasicTopology.peer[16].bitTorrentApp.bitTorrentClient  DownloadComplete_Test:vector  ETV
attr source  BitTorrentClient_DownloadComplete_Test
attr title  "Descargas completas (prueba), vector"
vector 35  BasicTopology.peer[17].bitTorrentApp.bitTorrentClient  DownloadComplete_Test:vector  ETV
attr source  BitTorrentClient_DownloadComplete_Test
attr title  "Descargas completas (prueba), vector"
vector 37  BasicTopology.peer[18].bitTorrentApp.bitTorrentClient  DownloadComplete_Test:vector  ETV
attr source  BitTorrentClient_DownloadComplete_Test
attr title  "Descargas completas (prueba), vector"
vector 39  BasicTopology.peer[19].bitTorrentApp.bitTorrentClient  DownloadComplete_Test:vector  ETV
attr source  BitTorrentClient_DownloadComplete_Test
attr title  "Descargas completas (prueba), vector"
vector 41  BasicTopology.peer[20].bitTorrentApp.bitTorrentClient  DownloadComplete_Test:vector  ETV
attr source  BitTorrentClient_DownloadComplete_Test
attr title  "Descargas completas (prueba), vector"
vector 43  BasicTopology.peer[21].bitTorrentApp.bitTorrentClient  DownloadComplete_Test:vector  ETV
attr source  BitTorrentClient_DownloadComplete_Test
attr title  "Descargas completas (prueba), vector"
vector 45  BasicTopology.peer[22].bitTorrentApp.bitTorrentClient  DownloadComplete_Test:vector  ETV
attr source  BitTorrentClient_DownloadComplete_Test
attr title  "Descargas completas (prueba), vector"
vector 47  BasicTopology.peer[23].bitTorrentApp.bitTorrentClient  DownloadComplete_Test:vector  ETV
attr source  BitTorrentClient_DownloadComplete_Test
attr title  "Descargas completas (prueba), vector"
vector 49  BasicTopology.peer[24].bitTorrentApp.bitTorrentClient  DownloadComplete_Test:vector  ETV
attr source  BitTorrentClient_DownloadComplete_Test
attr title  "Descargas completas (prueba), vector"
vector 833  BasicTopology.peer[0].bitTorrentApp.bitTorrentClient.contentManager_26  TotalBytesUploaded:vector  ETV
attr source  ContentManager_TotalBytesUploaded
attr title  "Total of Bytes Uploaded, vector"
attr unit  B
vector 840  BasicTopology.peer[1].bitTorrentApp.bitTorrentClient.contentManager_26  TotalBytesDownloaded:vector  ETV
attr source  ContentManager_TotalBytesDownloaded
attr title  "Total of Bytes Downloaded, vector"
attr unit  B
vector 920  BasicTopology.peer[11].bitTorrentApp.bitTorrentClient.contentManager_26  TotalBytesDownloaded:vector  ETV
attr source  ContentManager_TotalBytesDownloaded
attr title  "Total of Bytes Downloaded, vector"
attr unit  B
vector 1000  BasicTopology.peer[21].bitTorrentApp.bitTorrentClient.contentManager_26  TotalBytesDownloaded:vector  ETV
attr source  ContentManager_TotalBytesDownloaded
attr title  "Total of Bytes Downloaded, vector"
attr unit  B
vector 999  BasicTopology.peer[21].bitTorrentApp.bitTorrentClient.contentManager_26  PiecesDownloaded:vector  ETV
attr source  ContentManager_PieceDownloaded
attr title  "Pieces Downloaded, vector"
vector 1001  BasicTopology.peer[21].bitTorrentApp.bitTorrentClient.contentManager_26  TotalBytesUploaded:vector  ETV
attr source  ContentManager_TotalBytesUploaded
attr title  "Total of Bytes Uploaded, vector"
attr unit  B
vector 952  BasicTopology.peer[15].bitTorrentApp.bitTorrentClient.contentManager_26  TotalBytesDownloaded:vector  ETV
attr source  ContentManager_TotalBytesDownloaded
attr title  "Total of Bytes Downloaded, vector"
attr unit  B
vector 912  BasicTopology.peer[10].bitTorrentApp.bitTorrentClient.contentManager_26  TotalBytesDownloaded:vector  ETV
attr source  ContentManager_TotalBytesDownloaded
attr title  "Total of Bytes Downloaded, vector"
attr unit  B
vector 960  BasicTopology.peer[16].bitTorrentApp.bitTorrentClient.contentManager_26  TotalBytesDownloaded:vector  ETV
attr source  ContentManager_TotalBytesDownloaded
attr title  "Total of Bytes Downloaded, vector"
attr unit  B
vector 911  BasicTopology.peer[10].bitTorrentApp.bitTorrentClient.contentManager_26  PiecesDownloaded:vector  ETV
attr source  ContentManager_PieceDownloaded
attr title  "Pieces Downloaded, vector"
vector 913  BasicTopology.peer[10].bitTorrentApp.bitTorrentClient.contentManager_26  TotalBytesUploaded:vector  ETV
attr source  ContentManager_TotalBytesUploaded
attr title  "Total of Bytes Uploaded, vector"
attr unit  B
vector 992  BasicTopology.peer[20].bitTorrentApp.bitTorrentClient.contentManager_26  TotalBytesDownloaded:vector  ETV
attr source  ContentManager_TotalBytesDownloaded
attr title  "Total of Bytes Downloaded, vector"
attr unit  B
vector 944  BasicTopology.peer[14].bitTorrentApp.bitTorrentClient.contentManager_26  TotalBytesDownloaded:vector  ETV
attr source  ContentManager_TotalBytesDownloaded
attr title  "Total of Bytes Downloaded, vector"
attr unit  B
vector 919  BasicTopology.peer[11].bitTorrentApp.bitTorrentClient.contentManager_26  PiecesDownloaded:vector  ETV
attr source  ContentManager_PieceDownloaded
attr title  "Pieces Downloaded, vector"
vector 921  BasicTopology.peer[11].bitTorrentApp.bitTorrentClient.contentManager_26  TotalBytesUploaded:vector  ETV
attr source  ContentManager_TotalBytesUploaded
attr title  "Total of Bytes Uploaded, vector"
attr unit  B
vector 888  BasicTopology.peer[7].bitTorrentApp.bitTorrentClient.contentManager_26  TotalBytesDownloaded:vector  ETV
attr source  ContentManager_TotalBytesDownloaded
attr title  "Total of Bytes Downloaded, vector"
attr unit  B
vector 848  BasicTopology.peer[2].bitTorrentApp.bitTorrentClient.contentManager_26  TotalBytesDownloaded:vector  ETV
attr source  ContentManager_TotalBytesDownloaded
attr title  "Total of Bytes Downloaded, vector"
attr unit  B
vector 951  BasicTopology.peer[15].bitTorrentApp.bitTorrentClient.contentManager_26  PiecesDownloaded:vector  ETV
attr source  ContentManager_PieceDownloaded
attr title  "Pieces Downloaded, vector"
vector 953  BasicTopology.peer[15].bitTorrentApp.bitTorrentClient.contentManager_26  TotalBytesUploaded:vector  ETV
attr source  ContentManager_TotalBytesUploaded
attr title  "Total of Bytes Uploaded, vector"
attr unit  B
vector 856  BasicTopology.peer[3].bitTorrentApp.bitTorrentClient.contentManager_26  TotalBytesDownloaded:vector  ETV
attr source  ContentManager_TotalBytesDownloaded
attr title  "Total of Bytes Downloaded, vector"
attr unit  B
vector 896  BasicTopology.peer[8].bitTorrentApp.bitTorrentClient.contentManager_26  TotalBytesDownloaded:vector  ETV
attr source  ContentManager_TotalBytesDownloaded
attr title  "Total of Bytes Downloaded, vector"
attr unit  B
vector 991  BasicTopology.peer[20].bitTorrentApp.bitTorrentClient.contentManager_26  PiecesDownloaded:vector  ETV
attr source  ContentManager_PieceDownloaded
attr title  "Pieces Downloaded, vector"
vector 993  BasicTopology.peer[20].bitTorrentApp.bitTorrentClient.contentManager_26  TotalBytesUploaded:vector  ETV
attr source  ContentManager_TotalBytesUploaded
attr title  "Total of Bytes Uploaded, vector"
attr unit  B
vector 880  BasicTopology.peer[6].bitTorrentApp.bitTorrentClient.contentManager_26  TotalBytesDownloaded:vector  ETV
attr source  ContentManager_TotalBytesDownloaded
attr title  "Total of Bytes Downloaded, vector"
attr unit  B
vector 847  BasicTopology.peer[2].bitTorrentApp.bitTorrentClient.contentManager_26  PiecesDownloaded:vector  ETV
attr source  ContentManager_PieceDownloaded
attr title  "Pieces Downloaded, vector"
vector 849  BasicTopology.peer[2].bitTorrentApp.bitTorrentClient.contentManager_26  TotalBytesUploaded:vector  ETV
attr source  ContentManager_TotalBytesUploaded
attr title  "Total of Bytes Uploaded, vector"
attr unit  B
vector 839  BasicTopology.peer[1].bitTorrentApp.bitTorrentClient.contentManager_26  PiecesDownloaded:vector  ETV
attr source  ContentManager_PieceDownloaded
attr title  "Pieces Downloaded, vector"
vector 1008  BasicTopology.peer[22].bitTorrentApp.bitTorrentClient.contentManager_26  TotalBytesDownloaded:vector  ETV
attr source  ContentManager_TotalBytesDownloaded
attr title  "Total of Bytes Downloaded, vector"
attr unit  B
vector 841  BasicTopology.peer[1].bitTorrentApp.bitTorrentClient.contentManager_26  TotalBytesUploaded:vector  ETV
attr source  ContentManager_TotalBytesUploaded
attr title  "Total of Bytes Uploaded, vector"
attr unit  B
vector 976  BasicTopology.peer[18].bitTorrentApp.bitTorrentClient.contentManager_26  TotalBytesDownloaded:vector  ETV
attr source  ContentManager_TotalBytesDownloaded
attr title  "Total of Bytes Downloaded, vector"
attr unit  B
vector 864  BasicTopology.peer[4].bitTorrentApp.bitTorrentClient.contentManager_26  TotalBytesDownloaded:vector  ETV
attr source  ContentManager_TotalBytesDownloaded
attr title  "Total of Bytes Downloaded, vector"
attr unit  B
vector 1016  BasicTopology.peer[23].bitTorrentApp.bitTorrentClient.contentManager_26  TotalBytesDownloaded:vector  ETV
attr source  ContentManager_TotalBytesDownloaded
attr title  "Total of Bytes Downloaded, vector"
attr unit  B
vector 863  BasicTopology.peer[4].bitTorrentApp.bitTorrentClient.contentManager_26  PiecesDownloaded:vector  ETV
attr source  ContentManager_PieceDownloaded
attr title  "Pieces Downloaded, vector"
vector 865  BasicTopology.peer[4].bitTorrentApp.bitTorrentClient.contentManager_26  TotalBytesUploaded:vector  ETV
attr source  ContentManager_TotalBytesUploaded
attr title  "Total of Bytes Uploaded, vector"
attr unit  B
vector 936  BasicTopology.peer[13].bitTorrentApp.bitTorrentClient.contentManager_26  TotalBytesDownloaded:vector  ETV
attr source  ContentManager_TotalBytesDownloaded
attr title  "Total of Bytes Downloaded, vector"
attr unit  B
vector 1024  BasicTopology.peer[24].bitTorrentApp.bitTorrentClient.contentManager_26  TotalBytesDownloaded:vector  ETV
attr source  ContentManager_TotalBytesDownloaded
attr title  "Total of Bytes Downloaded, vector"
attr unit  B
vector 895  BasicTopology.peer[8].bitTorrentApp.bitTorrentClient.contentManager_26  PiecesDownloaded:vector  ETV
attr source  ContentManager_PieceDownloaded
attr title  "Pieces Downloaded, vector"
vector 897  BasicTopology.peer[8].bitTorrentApp.bitTorrentClient.contentManager_26  TotalBytesUploaded:vector  ETV
attr source  ContentManager_TotalBytesUploaded
attr title  "Total of Bytes Uploaded, vector"
attr unit  B
vector 1015  BasicTopology.peer[23].bitTorrentApp.bitTorrentClient.contentManager_26  PiecesDownloaded:vector  ETV
attr source  ContentManager_PieceDownloaded
attr title  "Pieces Downloaded, vector"
vector 879  BasicTopology.peer[6].bitTorrentApp.bitTorrentClient.contentManager_26  PiecesDownloaded:vector  ETV
attr source  ContentManager_PieceDownloaded
attr title  "Pieces Downloaded, vector"
vector 881  BasicTopology.peer[6].bitTorrentApp.bitTorrentClient.contentManager_26  TotalBytesUploaded:vector  ETV
attr source  ContentManager_TotalBytesUploaded
attr title  "Total of Bytes Uploaded, vector"
attr unit  B
vector 968  BasicTopology.peer[17].bitTorrentApp.bitTorrentClient.contentManager_26  TotalBytesDownloaded:vector  ETV
attr source  ContentManager_TotalBytesDownloaded
attr title  "Total of Bytes Downloaded, vector"
attr unit  B
vector 855  BasicTopology.peer[3].bitTorrentApp.bitTorrentClient.contentManager_26  PiecesDownloaded:vector  ETV
attr source  ContentManager_PieceDownloaded
attr title  "Pieces Downloaded, vector"
vector 935  BasicTopology.peer[13].bitTorrentApp.bitTorrentClient.contentManager_26  PiecesDownloaded:vector  ETV
attr source  ContentManager_PieceDownloaded
attr title  "Pieces Downloaded, vector"
vector 872  BasicTopology.peer[5].bitTorrentApp.bitTorrentClient.contentManager_26  TotalBytesDownloaded:vector  ETV
attr source  ContentManager_TotalBytesDownloaded
attr title  "Total of Bytes Downloaded, vector"
attr unit  B
vector 1007  BasicTopology.peer[22].bitTorrentApp.bitTorrentClient.contentManager_26  PiecesDownloaded:vector  ETV
attr source  ContentManager_PieceDownloaded
attr title  "Pieces Downloaded, vector"
vector 904  BasicTopology.peer[9].bitTorrentApp.bitTorrentClient.contentManager_26  TotalBytesDownloaded:vector  ETV
attr source  ContentManager_TotalBytesDownloaded
attr title  "Total of Bytes Downloaded, vector"
attr unit  B
vector 967  BasicTopology.peer[17].bitTorrentApp.bitTorrentClient.contentManager_26  PiecesDownloaded:vector  ETV
attr source  ContentManager_PieceDownloaded
attr title  "Pieces Downloaded, vector"
vector 1009  BasicTopology.peer[22].bitTorrentApp.bitTorrentClient.contentManager_26  TotalBytesUploaded:vector  ETV
attr source  ContentManager_TotalBytesUploaded
attr title  "Total of Bytes Uploaded, vector"
attr unit  B
vector 903  BasicTopology.peer[9].bitTorrentApp.bitTorrentClient.contentManager_26  PiecesDownloaded:vector  ETV
attr source  ContentManager_PieceDownloaded
attr title  "Pieces Downloaded, vector"
vector 1023  BasicTopology.peer[24].bitTorrentApp.bitTorrentClient.contentManager_26  PiecesDownloaded:vector  ETV
attr source  ContentManager_PieceDownloaded
attr title  "Pieces Downloaded, vector"
vector 984  BasicTopology.peer[19].bitTorrentApp.bitTorrentClient.contentManager_26  TotalBytesDownloaded:vector  ETV
attr source  ContentManager_TotalBytesDownloaded
attr title  "Total of Bytes Downloaded, vector"
attr unit  B
vector 928  BasicTopology.peer[12].bitTorrentApp.bitTorrentClient.contentManager_26  TotalBytesDownloaded:vector  ETV
attr source  ContentManager_TotalBytesDownloaded
attr title  "Total of Bytes Downloaded, vector"
attr unit  B
vector 857  BasicTopology.peer[3].bitTorrentApp.bitTorrentClient.contentManager_26  TotalBytesUploaded:vector  ETV
attr source  ContentManager_TotalBytesUploaded
attr title  "Total of Bytes Uploaded, vector"
attr unit  B
vector 887  BasicTopology.peer[7].bitTorrentApp.bitTorrentClient.contentManager_26  PiecesDownloaded:vector  ETV
attr source  ContentManager_PieceDownloaded
attr title  "Pieces Downloaded, vector"
vector 1017  BasicTopology.peer[23].bitTorrentApp.bitTorrentClient.contentManager_26  TotalBytesUploaded:vector  ETV
attr source  ContentManager_TotalBytesUploaded
attr title  "Total of Bytes Uploaded, vector"
attr unit  B
vector 871  BasicTopology.peer[5].bitTorrentApp.bitTorrentClient.contentManager_26  PiecesDownloaded:vector  ETV
attr source  ContentManager_PieceDownloaded
attr title  "Pieces Downloaded, vector"
vector 1025  BasicTopology.peer[24].bitTorrentApp.bitTorrentClient.contentManager_26  TotalBytesUploaded:vector  ETV
attr source  ContentManager_TotalBytesUploaded
attr title  "Total of Bytes Uploaded, vector"
attr unit  B
vector 889  BasicTopology.peer[7].bitTorrentApp.bitTorrentClient.contentManager_26  TotalBytesUploaded:vector  ETV
attr source  ContentManager_TotalBytesUploaded
attr title  "Total of Bytes Uploaded, vector"
attr unit  B
vector 959  BasicTopology.peer[16].bitTorrentApp.bitTorrentClient.contentManager_26  PiecesDownloaded:vector  ETV
attr source  ContentManager_PieceDownloaded
attr title  "Pieces Downloaded, vector"
vector 873  BasicTopology.peer[5].bitTorrentApp.bitTorrentClient.contentManager_26  TotalBytesUploaded:vector  ETV
attr source  ContentManager_TotalBytesUploaded
attr title  "Total of Bytes Uploaded, vector"
attr unit  B
vector 927  BasicTopology.peer[12].bitTorrentApp.bitTorrentClient.contentManager_26  PiecesDownloaded:vector  ETV
attr source  ContentManager_PieceDownloaded
attr title  "Pieces Downloaded, vector"
vector 943  BasicTopology.peer[14].bitTorrentApp.bitTorrentClient.contentManager_26  PiecesDownloaded:vector  ETV
attr source  ContentManager_PieceDownloaded
attr title  "Pieces Downloaded, vector"
vector 975  BasicTopology.peer[18].bitTorrentApp.bitTorrentClient.contentManager_26  PiecesDownloaded:vector  ETV
attr source  ContentManager_PieceDownloaded
attr title  "Pieces Downloaded, vector"
vector 977  BasicTopology.peer[18].bitTorrentApp.bitTorrentClient.contentManager_26  TotalBytesUploaded:vector  ETV
attr source  ContentManager_TotalBytesUploaded
attr title  "Total of Bytes Uploaded, vector"
attr unit  B
vector 983  BasicTopology.peer[19].bitTorrentApp.bitTorrentClient.contentManager_26  PiecesDownloaded:vector  ETV
attr source  ContentManager_PieceDownloaded
attr title  "Pieces Downloaded, vector"
vector 985  BasicTopology.peer[19].bitTorrentApp.bitTorrentClient.contentManager_26  TotalBytesUploaded:vector  ETV
attr source  ContentManager_TotalBytesUploaded
attr title  "Total of Bytes Uploaded, vector"
attr unit  B
vector 961  BasicTopology.peer[16].bitTorrentApp.bitTorrentClient.contentManager_26  TotalBytesUploaded:vector  ETV
attr source  ContentManager_TotalBytesUploaded
attr title  "Total of Bytes Uploaded, vector"
attr unit  B
vector 929  BasicTopology.peer[12].bitTorrentApp.bitTorrentClient.contentManager_26  TotalBytesUploaded:vector  ETV
attr source  ContentManager_TotalBytesUploaded
attr title  "Total of Bytes Uploaded, vector"
attr unit  B
vector 937  BasicTopology.peer[13].bitTorrentApp.bitTorrentClient.contentManager_26  TotalBytesUploaded:vector  ETV
attr source  ContentManager_TotalBytesUploaded
attr title  "Total of Bytes Uploaded, vector"
attr unit  B
3	85	36001	36001
3	44981904	36080.764323916656	36080.764323917
5	86	36001	36001
5	46870050	36084.218073698267	36084.218073698
7	87	36001	36001
7	55552748	36101.519583994188	36101.519583994
9	88	36001	36001
9	69042687	36129.5551626206	36129.555162621
11	89	36001	36001
11	71807535	36136.166214803277	36136.166214803
13	90	36001	36001
13	75012694	36142.76469524998	36142.76469525
15	91	36001	36001
15	64042268	36118.920033561564	36118.920033562
17	92	36001	36001
17	76597666	36146.72008532795	36146.720085328
19	93	36001	36001
19	75078648	36142.891448769226	36142.891448769
21	94	36001	36001
21	44166493	36079.322038514368	36079.322038514
23	95	36001	36001
23	40385915	36072.869864820925	36072.869864821
25	96	36001	36001
25	61288034	36113.342930492849	36113.342930493
27	97	36001	36001
27	65127781	36121.11054174091	36121.110541741
29	98	36001	36001
29	80723636	36306.575351649484	36306.575351649
31	99	36001	36001
31	71560768	36135.704208190208	36135.70420819
33	100	36001	36001
33	75782142	36144.537207457144	36144.537207457
35	101	36001	36001
35	78997625	36155.978460799821	36155.9784608
37	102	36001	36001
37	78017652	36152.078031352109	36152.078031352
39	103	36001	36001
39	67682573	36126.467648989981	36126.46764899
41	104	36001	36001
41	39332013	36071.15403064185	36071.154030642
43	105	36001	36001
43	53975311	36098.181595644703	36098.181595645
45	106	36001	36001
45	43451270	36078.295705412656	36078.295705413
47	107	36001	36001
47	61991128	36114.786992379653	36114.78699238
49	108	36001	36001
49	77453712	36148.503565633223	36148.503565633
833	108631	36001.081143544765	32768
833	111164	36001.083551803205	65536
833	111765	36001.084072924926	98304
833	112360	36001.084680620348	131072
833	118183	36001.091036738162	163840
833	122482	36001.097838423262	196608
833	126402	36001.115450797833	229376
833	156951	36001.147525823927	262144
833	157278	36001.148201926485	294912
833	172070	36001.171112152684	327680
833	281126	36001.580759268801	360448
833	281836	36001.581621098294	393216
833	283252	36001.583244863998	425984
833	291288	36001.593713434236	458752
833	291307	36001.593731691991	491520
833	294820	36001.59904396994	524288
833	295089	36001.599328672445	557056
833	300867	36001.606516412702	589824
833	305148	36001.611413824181	622592
833	314627	36001.630264482409	655360
833	315827	36001.635044811668	688128
833	319961	36001.640944020903	720896
833	320123	36001.641418317359	753664
833	326394	36001.649668738018	786432
833	326655	36001.650251268632	819200
833	329985	36001.660677384915	851968
833	340942	36001.67875821695	884736
833	344898	36001.693730148228	917504
833	350357	36001.703927627908	950272
833	356427	36001.712573593053	983040
833	451607	36002.474100372658	1015808
833	532145	36002.567193664074	1048576
833	536210	36002.572675230429	1081344
833	536262	36002.572809673398	1114112
833	536483	36002.573316876327	1146880
833	537118	36002.574063944412	1179648
833	543835	36002.582656337754	1212416
833	544639	36002.583564455691	1245184
833	548024	36002.588175627499	1277952
833	550790	36002.596448272155	1310720
833	551312	36002.598880669099	1343488
833	581111	36002.839654014144	1376256
833	590203	36002.863386379779	1409024
833	636259	36003.086976213128	1441792
833	646129	36003.121768859148	1474560
833	666874	36003.187484435088	1507328
833	683591	36003.248498277936	1540096
833	702677	36003.318270883453	1572864
833	716096	36003.368539515272	1605632
833	735450	36003.445487624015	1638400
833	757579	36003.511762803188	1671168
833	779587	36003.569822462196	1703936
833	813701	36003.638415705851	1736704
833	828145	36003.895682702313	1769472
833	841249	36003.929999129656	1802240
833	854335	36003.964718950713	1835008
833	1131504	36004.591243188093	1867776
833	1166478	36004.652213224319	1900544
833	1209601	36004.731966168866	1933312
833	1225269	36004.786446451767	1966080
833	1247438	36004.86163433692	1998848
833	1282792	36004.945753587029	2031616
833	1499628	36006.068647023655	2064384
833	1505044	36006.079763966189	2097152
833	1890981	36007.052920566252	2129920
833	1924469	36007.136081745004	2162688
833	1955408	36007.213232210763	2195456
833	1956087	36007.21536616587	2228224
833	1958319	36007.220575523055	2260992
833	1961838	36007.231026605382	2293760
833	1964160	36007.23963822634	2326528
833	2038035	36007.734658010607	2359296
833	2060351	36007.814174245537	2392064
833	2071047	36007.853357928617	2424832
833	2094003	36007.925251735663	2457600
833	2112470	36007.997531099741	2490368
833	2141586	36008.083378280946	2523136
833	2221657	36008.272683934227	2555904
833	2232172	36008.321839719269	2588672
833	2525768	36009.203842324732	2621440
833	2542889	36009.264123131744	2654208
833	2545979	36009.271868949833	2686976
833	2634796	36009.447672283912	2719744
833	2690990	36009.543750016108	2752512
833	3115756	36010.654306989229	2785280
833	3197432	36010.790386630841	2818048
833	3244468	36010.859011162419	2850816
833	3314419	36010.957015234537	2883584
833	3504038	36011.398968097903	2916352
833	3647602	36011.834146978959	2949120
833	3790683	36012.064496590979	2981888
833	3986755	36012.416607528208	3014656
833	4043739	36012.538916894178	3047424
833	4252624	36012.935153398375	3080192
833	4281464	36012.982966734329	3112960
833	4451248	36013.269116973024	3145728
833	4523741	36013.37524788109	3178496
833	4551192	36013.428033888115	3211264
833	4858969	36014.048855007839	3244032
833	5106499	36014.509666434548	3276800
833	5165305	36014.588209435649	3309568
833	5227929	36014.682718214283	3342336
833	5453454	36015.145999948317	3375104
833	5520048	36015.298480573342	3407872
833	5565048	36015.379728327823	3440640
833	5865916	36015.78927471187	3473408
833	5899631	36015.830393447519	3506176
833	5962088	36015.908981046472	3538944
833	6521730	36016.940143430033	3571712
833	7542521	36018.476123504268	3604480
833	7647228	36018.634939063836	3637248
833	7694442	36018.701364496678	3670016
833	8481181	36019.981245506959	3702784
833	8525478	36020.051601629152	3735552
833	8532311	36020.064241972602	3768320
833	8554968	36020.104339817721	3801088
833	8970054	36020.814093837909	3833856
833	9016792	36020.883919856059	3866624
833	9062748	36020.960125192248	3899392
833	9108632	36021.054256669182	3932160
833	9111695	36021.05861927282	3964928
833	9111868	36021.058854180262	3997696
833	9113030	36021.061096510142	4030464
833	9113494	36021.061861153128	4063232
833	9120954	36021.078076994643	4096000
833	9121192	36021.078493327192	4128768
833	9121785	36021.079122080093	4161536
833	9129310	36021.092946023848	4194304
833	9129678	36021.093463466081	4227072
833	9168497	36021.144471445523	4259840
833	9206685	36021.199687521918	4292608
833	11067068	36024.100927838228	4325376
833	11068961	36024.104124427613	4358144
833	11069231	36024.104599343115	4390912
833	11072043	36024.107735503978	4423680
833	11199976	36024.354162058118	4456448
833	11252905	36024.461738106024	4489216
833	11387202	36024.673915817291	4521984
833	11952765	36025.536686991102	4554752
833	11957957	36025.544723055152	4587520
833	12688041	36026.650373713342	4620288
833	13231926	36027.605841092559	4653056
833	13263872	36027.654969108017	4685824
833	13849807	36028.695112727924	4718592
833	13887929	36028.764078279918	4751360
833	13947022	36028.864261140899	4784128
833	13967655	36028.898552931245	4816896
833	14007048	36028.967824504095	4849664
833	14046216	36029.028456427911	4882432
833	14093723	36029.105485714025	4915200
833	14482278	36029.825665581157	4947968
833	14523536	36029.878222175475	4980736
833	14558365	36029.928471787478	5013504
833	14619545	36030.024430960616	5046272
833	14711336	36030.17223174264	5079040
833	14977563	36030.676668052103	5111808
833	15039501	36030.795267480451	5144576
833	15217452	36031.092576359901	5177344
833	15226873	36031.102720656244	5210112
833	15238854	36031.117814382569	5242880
833	15252102	36031.134643628881	5275648
833	15263781	36031.15183862833	5308416
833	15265995	36031.156580004206	5341184
833	15274254	36031.166637242419	5373952
833	15281946	36031.1748084059	5406720
833	15282162	36031.17512394048	5439488
833	15284022	36031.17741452772	5472256
833	15695688	36031.984967064634	5505024
833	15796895	36032.206364288534	5537792
833	16380970	36033.245089937008	5570560
833	16421633	36033.316055038614	5603328
833	16459785	36033.367077223307	5636096
833	16494874	36033.412571625972	5668864
833	16797907	36034.078400802527	5701632
833	16824801	36034.115126547992	5734400
833	17129887	36034.565789363664	5767168
833	17191140	36034.684659568265	5799936
833	17257490	36034.809992637907	5832704
833	17403325	36035.168463166841	5865472
833	17826819	36035.930827581184	5898240
833	17873441	36036.012223679904	5931008
833	17946204	36036.142847717346	5963776
833	18008883	36036.259813160418	5996544
833	18653460	36037.319354306874	6029312
833	20051868	36039.459296212884	6062080
833	20741733	36040.589860869642	6094848
833	22246990	36043.24089795108	6127616
833	22315137	36043.339066723916	6160384
833	22334282	36043.367431426012	6193152
833	22374253	36043.430692359517	6225920
833	22439275	36043.522683529458	6258688
833	22457478	36043.547332813349	6291456
833	22498880	36043.61104646427	6324224
833	22646037	36043.821164643011	6356992
833	22764626	36044.007912660083	6389760
833	22833742	36044.110940903856	6422528
833	23037506	36044.491335725117	6455296
833	23112947	36044.608141137808	6488064
833	23160546	36044.67784178632	6520832
833	23800234	36045.729181051572	6553600
833	23812330	36045.747552981144	6586368
833	23837510	36045.780953940996	6619136
833	23855355	36045.80354482282	6651904
833	23919146	36045.894172353372	6684672
833	23958156	36045.951751228209	6717440
833	24034768	36046.037347439817	6750208
833	24198739	36046.257083012826	6782976
833	24274165	36046.370912198827	6815744