version 2
run Test-6-20200526-12:14:24-5202
attr configname Test
attr datetime 20200526-12:14:24
attr experiment "\"Simulation Test\""
attr inifile BasicConfig.ini
attr iterationvars ""
attr iterationvars2 $repetition=6
attr measurement "\"Peers: $peers, Rate: $rate\""
attr network BasicTopology
attr processid 5202
attr repetition 6
attr replication #6
attr resultdir results
attr runnumber 6
attr seedset 6

vector 3  BasicTopology.peer[1].bitTorrentApp.bitTorrentClient  DownloadComplete_Test:vector  ETV
attr source  BitTorrentClient_DownloadComplete_Test
attr title  "Descargas completas (prueba), vector"
vector 5  BasicTopology.peer[2].bitTorrentApp.bitTorrentClient  DownloadComplete_Test:vector  ETV
attr source  BitTorrentClient_DownloadComplete_Test
attr title  "Descargas completas (prueba), vector"
vector 7  BasicTopology.peer[3].bitTorrentApp.bitTorrentClient  DownloadComplete_Test:vector  ETV
attr source  BitTorrentClient_DownloadComplete_Test
attr title  "Descargas completas (prueba), vector"
vector 9  BasicTopology.peer[4].bitTorrentApp.bitTorrentClient  DownloadComplete_Test:vector  ETV
attr source  BitTorrentClient_DownloadComplete_Test
attr title  "Descargas completas (prueba), vector"
vector 11  BasicTopology.peer[5].bitTorrentApp.bitTorrentClient  DownloadComplete_Test:vector  ETV
attr source  BitTorrentClient_DownloadComplete_Test
attr title  "Descargas completas (prueba), vector"
vector 13  BasicTopology.peer[6].bitTorrentApp.bitTorrentClient  DownloadComplete_Test:vector  ETV
attr source  BitTorrentClient_DownloadComplete_Test
attr title  "Descargas completas (prueba), vector"
vector 15  BasicTopology.peer[7].bitTorrentApp.bitTorrentClient  DownloadComplete_Test:vector  ETV
attr source  BitTorrentClient_DownloadComplete_Test
attr title  "Descargas completas (prueba), vector"
vector 17  BasicTopology.peer[8].bitTorrentApp.bitTorrentClient  DownloadComplete_Test:vector  ETV
attr source  BitTorrentClient_DownloadComplete_Test
attr title  "Descargas completas (prueba), vector"
vector 19  BasicTopology.peer[9].bitTorrentApp.bitTorrentClient  DownloadComplete_Test:vector  ETV
attr source  BitTorrentClient_DownloadComplete_Test
attr title  "Descargas completas (prueba), vector"
vector 21  BasicTopology.peer[10].bitTorrentApp.bitTorrentClient  DownloadComplete_Test:vector  ETV
attr source  BitTorrentClient_DownloadComplete_Test
attr title  "Descargas completas (prueba), vector"
vector 23  BasicTopology.peer[11].bitTorrentApp.bitTorrentClient  DownloadComplete_Test:vector  ETV
attr source  BitTorrentClient_DownloadComplete_Test
attr title  "Descargas completas (prueba), vector"
vector 25  BasicTopology.peer[12].bitTorrentApp.bitTorrentClient  DownloadComplete_Test:vector  ETV
attr source  BitTorrentClient_DownloadComplete_Test
attr title  "Descargas completas (prueba), vector"
vector 27  BasicTopology.peer[13].bitTorrentApp.bitTorrentClient  DownloadComplete_Test:vector  ETV
attr source  BitTorrentClient_DownloadComplete_Test
attr title  "Descargas completas (prueba), vector"
vector 29  BasicTopology.peer[14].bitTorrentApp.bitTorrentClient  DownloadComplete_Test:vector  ETV
attr source  BitTorrentClient_DownloadComplete_Test
attr title  "Descargas completas (prueba), vector"
vector 31  BasicTopology.peer[15].bitTorrentApp.bitTorrentClient  DownloadComplete_Test:vector  ETV
attr source  BitTorrentClient_DownloadComplete_Test
attr title  "Descargas completas (prueba), vector"
vector 33  BasicTopology.peer[16].bitTorrentApp.bitTorrentClient  DownloadComplete_Test:vector  ETV
attr source  BitTorrentClient_DownloadComplete_Test
attr title  "Descargas completas (prueba), vector"
vector 35  BasicTopology.peer[17].bitTorrentApp.bitTorrentClient  DownloadComplete_Test:vector  ETV
attr source  BitTorrentClient_DownloadComplete_Test
attr title  "Descargas completas (prueba), vector"
vector 37  BasicTopology.peer[18].bitTorrentApp.bitTorrentClient  DownloadComplete_Test:vector  ETV
attr source  BitTorrentClient_DownloadComplete_Test
attr title  "Descargas completas (prueba), vector"
vector 39  BasicTopology.peer[19].bitTorrentApp.bitTorrentClient  DownloadComplete_Test:vector  ETV
attr source  BitTorrentClient_DownloadComplete_Test
attr title  "Descargas completas (prueba), vector"
vector 41  BasicTopology.peer[20].bitTorrentApp.bitTorrentClient  DownloadComplete_Test:vector  ETV
attr source  BitTorrentClient_DownloadComplete_Test
attr title  "Descargas completas (prueba), vector"
vector 43  BasicTopology.peer[21].bitTorrentApp.bitTorrentClient  DownloadComplete_Test:vector  ETV
attr source  BitTorrentClient_DownloadComplete_Test
attr title  "Descargas completas (prueba), vector"
vector 45  BasicTopology.peer[22].bitTorrentApp.bitTorrentClient  DownloadComplete_Test:vector  ETV
attr source  BitTorrentClient_DownloadComplete_Test
attr title  "Descargas completas (prueba), vector"
vector 47  BasicTopology.peer[23].bitTorrentApp.bitTorrentClient  DownloadComplete_Test:vector  ETV
attr source  BitTorrentClient_DownloadComplete_Test
attr title  "Descargas completas (prueba), vector"
vector 49  BasicTopology.peer[24].bitTorrentApp.bitTorrentClient  DownloadComplete_Test:vector  ETV
attr source  BitTorrentClient_DownloadComplete_Test
attr title  "Descargas completas (prueba), vector"
vector 833  BasicTopology.peer[0].bitTorrentApp.bitTorrentClient.contentManager_26  TotalBytesUploaded:vector  ETV
attr source  ContentManager_TotalBytesUploaded
attr title  "Total of Bytes Uploaded, vector"
attr unit  B
vector 1000  BasicTopology.peer[21].bitTorrentApp.bitTorrentClient.contentManager_26  TotalBytesDownloaded:vector  ETV
attr source  ContentManager_TotalBytesDownloaded
attr title  "Total of Bytes Downloaded, vector"
attr unit  B
vector 920  BasicTopology.peer[11].bitTorrentApp.bitTorrentClient.contentManager_26  TotalBytesDownloaded:vector  ETV
attr source  ContentManager_TotalBytesDownloaded
attr title  "Total of Bytes Downloaded, vector"
attr unit  B
vector 999  BasicTopology.peer[21].bitTorrentApp.bitTorrentClient.contentManager_26  PiecesDownloaded:vector  ETV
attr source  ContentManager_PieceDownloaded
attr title  "Pieces Downloaded, vector"
vector 1001  BasicTopology.peer[21].bitTorrentApp.bitTorrentClient.contentManager_26  TotalBytesUploaded:vector  ETV
attr source  ContentManager_TotalBytesUploaded
attr title  "Total of Bytes Uploaded, vector"
attr unit  B
vector 848  BasicTopology.peer[2].bitTorrentApp.bitTorrentClient.contentManager_26  TotalBytesDownloaded:vector  ETV
attr source  ContentManager_TotalBytesDownloaded
attr title  "Total of Bytes Downloaded, vector"
attr unit  B
vector 912  BasicTopology.peer[10].bitTorrentApp.bitTorrentClient.contentManager_26  TotalBytesDownloaded:vector  ETV
attr source  ContentManager_TotalBytesDownloaded
attr title  "Total of Bytes Downloaded, vector"
attr unit  B
vector 840  BasicTopology.peer[1].bitTorrentApp.bitTorrentClient.contentManager_26  TotalBytesDownloaded:vector  ETV
attr source  ContentManager_TotalBytesDownloaded
attr title  "Total of Bytes Downloaded, vector"
attr unit  B
vector 936  BasicTopology.peer[13].bitTorrentApp.bitTorrentClient.contentManager_26  TotalBytesDownloaded:vector  ETV
attr source  ContentManager_TotalBytesDownloaded
attr title  "Total of Bytes Downloaded, vector"
attr unit  B
vector 992  BasicTopology.peer[20].bitTorrentApp.bitTorrentClient.contentManager_26  TotalBytesDownloaded:vector  ETV
attr source  ContentManager_TotalBytesDownloaded
attr title  "Total of Bytes Downloaded, vector"
attr unit  B
vector 935  BasicTopology.peer[13].bitTorrentApp.bitTorrentClient.contentManager_26  PiecesDownloaded:vector  ETV
attr source  ContentManager_PieceDownloaded
attr title  "Pieces Downloaded, vector"
vector 937  BasicTopology.peer[13].bitTorrentApp.bitTorrentClient.contentManager_26  TotalBytesUploaded:vector  ETV
attr source  ContentManager_TotalBytesUploaded
attr title  "Total of Bytes Uploaded, vector"
attr unit  B
vector 911  BasicTopology.peer[10].bitTorrentApp.bitTorrentClient.contentManager_26  PiecesDownloaded:vector  ETV
attr source  ContentManager_PieceDownloaded
attr title  "Pieces Downloaded, vector"
vector 913  BasicTopology.peer[10].bitTorrentApp.bitTorrentClient.contentManager_26  TotalBytesUploaded:vector  ETV
attr source  ContentManager_TotalBytesUploaded
attr title  "Total of Bytes Uploaded, vector"
attr unit  B
vector 839  BasicTopology.peer[1].bitTorrentApp.bitTorrentClient.contentManager_26  PiecesDownloaded:vector  ETV
attr source  ContentManager_PieceDownloaded
attr title  "Pieces Downloaded, vector"
vector 841  BasicTopology.peer[1].bitTorrentApp.bitTorrentClient.contentManager_26  TotalBytesUploaded:vector  ETV
attr source  ContentManager_TotalBytesUploaded
attr title  "Total of Bytes Uploaded, vector"
attr unit  B
vector 1016  BasicTopology.peer[23].bitTorrentApp.bitTorrentClient.contentManager_26  TotalBytesDownloaded:vector  ETV
attr source  ContentManager_TotalBytesDownloaded
attr title  "Total of Bytes Downloaded, vector"
attr unit  B
vector 991  BasicTopology.peer[20].bitTorrentApp.bitTorrentClient.contentManager_26  PiecesDownloaded:vector  ETV
attr source  ContentManager_PieceDownloaded
attr title  "Pieces Downloaded, vector"
vector 993  BasicTopology.peer[20].bitTorrentApp.bitTorrentClient.contentManager_26  TotalBytesUploaded:vector  ETV
attr source  ContentManager_TotalBytesUploaded
attr title  "Total of Bytes Uploaded, vector"
attr unit  B
vector 976  BasicTopology.peer[18].bitTorrentApp.bitTorrentClient.contentManager_26  TotalBytesDownloaded:vector  ETV
attr source  ContentManager_TotalBytesDownloaded
attr title  "Total of Bytes Downloaded, vector"
attr unit  B
vector 856  BasicTopology.peer[3].bitTorrentApp.bitTorrentClient.contentManager_26  TotalBytesDownloaded:vector  ETV
attr source  ContentManager_TotalBytesDownloaded
attr title  "Total of Bytes Downloaded, vector"
attr unit  B
vector 1008  BasicTopology.peer[22].bitTorrentApp.bitTorrentClient.contentManager_26  TotalBytesDownloaded:vector  ETV
attr source  ContentManager_TotalBytesDownloaded
attr title  "Total of Bytes Downloaded, vector"
attr unit  B
vector 1024  BasicTopology.peer[24].bitTorrentApp.bitTorrentClient.contentManager_26  TotalBytesDownloaded:vector  ETV
attr source  ContentManager_TotalBytesDownloaded
attr title  "Total of Bytes Downloaded, vector"
attr unit  B
vector 1007  BasicTopology.peer[22].bitTorrentApp.bitTorrentClient.contentManager_26  PiecesDownloaded:vector  ETV
attr source  ContentManager_PieceDownloaded
attr title  "Pieces Downloaded, vector"
vector 1009  BasicTopology.peer[22].bitTorrentApp.bitTorrentClient.contentManager_26  TotalBytesUploaded:vector  ETV
attr source  ContentManager_TotalBytesUploaded
attr title  "Total of Bytes Uploaded, vector"
attr unit  B
vector 984  BasicTopology.peer[19].bitTorrentApp.bitTorrentClient.contentManager_26  TotalBytesDownloaded:vector  ETV
attr source  ContentManager_TotalBytesDownloaded
attr title  "Total of Bytes Downloaded, vector"
attr unit  B
vector 960  BasicTopology.peer[16].bitTorrentApp.bitTorrentClient.contentManager_26  TotalBytesDownloaded:vector  ETV
attr source  ContentManager_TotalBytesDownloaded
attr title  "Total of Bytes Downloaded, vector"
attr unit  B
vector 855  BasicTopology.peer[3].bitTorrentApp.bitTorrentClient.contentManager_26  PiecesDownloaded:vector  ETV
attr source  ContentManager_PieceDownloaded
attr title  "Pieces Downloaded, vector"
vector 857  BasicTopology.peer[3].bitTorrentApp.bitTorrentClient.contentManager_26  TotalBytesUploaded:vector  ETV
attr source  ContentManager_TotalBytesUploaded
attr title  "Total of Bytes Uploaded, vector"
attr unit  B
vector 864  BasicTopology.peer[4].bitTorrentApp.bitTorrentClient.contentManager_26  TotalBytesDownloaded:vector  ETV
attr source  ContentManager_TotalBytesDownloaded
attr title  "Total of Bytes Downloaded, vector"
attr unit  B
vector 928  BasicTopology.peer[12].bitTorrentApp.bitTorrentClient.contentManager_26  TotalBytesDownloaded:vector  ETV
attr source  ContentManager_TotalBytesDownloaded
attr title  "Total of Bytes Downloaded, vector"
attr unit  B
vector 975  BasicTopology.peer[18].bitTorrentApp.bitTorrentClient.contentManager_26  PiecesDownloaded:vector  ETV
attr source  ContentManager_PieceDownloaded
attr title  "Pieces Downloaded, vector"
vector 977  BasicTopology.peer[18].bitTorrentApp.bitTorrentClient.contentManager_26  TotalBytesUploaded:vector  ETV
attr source  ContentManager_TotalBytesUploaded
attr title  "Total of Bytes Uploaded, vector"
attr unit  B
vector 872  BasicTopology.peer[5].bitTorrentApp.bitTorrentClient.contentManager_26  TotalBytesDownloaded:vector  ETV
attr source  ContentManager_TotalBytesDownloaded
attr title  "Total of Bytes Downloaded, vector"
attr unit  B
vector 1015  BasicTopology.peer[23].bitTorrentApp.bitTorrentClient.contentManager_26  PiecesDownloaded:vector  ETV
attr source  ContentManager_PieceDownloaded
attr title  "Pieces Downloaded, vector"
vector 1017  BasicTopology.peer[23].bitTorrentApp.bitTorrentClient.contentManager_26  TotalBytesUploaded:vector  ETV
attr source  ContentManager_TotalBytesUploaded
attr title  "Total of Bytes Uploaded, vector"
attr unit  B
vector 863  BasicTopology.peer[4].bitTorrentApp.bitTorrentClient.contentManager_26  PiecesDownloaded:vector  ETV
attr source  ContentManager_PieceDownloaded
attr title  "Pieces Downloaded, vector"
vector 865  BasicTopology.peer[4].bitTorrentApp.bitTorrentClient.contentManager_26  TotalBytesUploaded:vector  ETV
attr source  ContentManager_TotalBytesUploaded
attr title  "Total of Bytes Uploaded, vector"
attr unit  B
vector 880  BasicTopology.peer[6].bitTorrentApp.bitTorrentClient.contentManager_26  TotalBytesDownloaded:vector  ETV
attr source  ContentManager_TotalBytesDownloaded
attr title  "Total of Bytes Downloaded, vector"
attr unit  B
vector 847  BasicTopology.peer[2].bitTorrentApp.bitTorrentClient.contentManager_26  PiecesDownloaded:vector  ETV
attr source  ContentManager_PieceDownloaded
attr title  "Pieces Downloaded, vector"
vector 896  BasicTopology.peer[8].bitTorrentApp.bitTorrentClient.contentManager_26  TotalBytesDownloaded:vector  ETV
attr source  ContentManager_TotalBytesDownloaded
attr title  "Total of Bytes Downloaded, vector"
attr unit  B
vector 927  BasicTopology.peer[12].bitTorrentApp.bitTorrentClient.contentManager_26  PiecesDownloaded:vector  ETV
attr source  ContentManager_PieceDownloaded
attr title  "Pieces Downloaded, vector"
vector 929  BasicTopology.peer[12].bitTorrentApp.bitTorrentClient.contentManager_26  TotalBytesUploaded:vector  ETV
attr source  ContentManager_TotalBytesUploaded
attr title  "Total of Bytes Uploaded, vector"
attr unit  B
vector 952  BasicTopology.peer[15].bitTorrentApp.bitTorrentClient.contentManager_26  TotalBytesDownloaded:vector  ETV
attr source  ContentManager_TotalBytesDownloaded
attr title  "Total of Bytes Downloaded, vector"
attr unit  B
vector 919  BasicTopology.peer[11].bitTorrentApp.bitTorrentClient.contentManager_26  PiecesDownloaded:vector  ETV
attr source  ContentManager_PieceDownloaded
attr title  "Pieces Downloaded, vector"
vector 921  BasicTopology.peer[11].bitTorrentApp.bitTorrentClient.contentManager_26  TotalBytesUploaded:vector  ETV
attr source  ContentManager_TotalBytesUploaded
attr title  "Total of Bytes Uploaded, vector"
attr unit  B
vector 959  BasicTopology.peer[16].bitTorrentApp.bitTorrentClient.contentManager_26  PiecesDownloaded:vector  ETV
attr source  ContentManager_PieceDownloaded
attr title  "Pieces Downloaded, vector"
vector 961  BasicTopology.peer[16].bitTorrentApp.bitTorrentClient.contentManager_26  TotalBytesUploaded:vector  ETV
attr source  ContentManager_TotalBytesUploaded
attr title  "Total of Bytes Uploaded, vector"
attr unit  B
vector 879  BasicTopology.peer[6].bitTorrentApp.bitTorrentClient.contentManager_26  PiecesDownloaded:vector  ETV
attr source  ContentManager_PieceDownloaded
attr title  "Pieces Downloaded, vector"
vector 881  BasicTopology.peer[6].bitTorrentApp.bitTorrentClient.contentManager_26  TotalBytesUploaded:vector  ETV
attr source  ContentManager_TotalBytesUploaded
attr title  "Total of Bytes Uploaded, vector"
attr unit  B
vector 944  BasicTopology.peer[14].bitTorrentApp.bitTorrentClient.contentManager_26  TotalBytesDownloaded:vector  ETV
attr source  ContentManager_TotalBytesDownloaded
attr title  "Total of Bytes Downloaded, vector"
attr unit  B
vector 1023  BasicTopology.peer[24].bitTorrentApp.bitTorrentClient.contentManager_26  PiecesDownloaded:vector  ETV
attr source  ContentManager_PieceDownloaded
attr title  "Pieces Downloaded, vector"
vector 904  BasicTopology.peer[9].bitTorrentApp.bitTorrentClient.contentManager_26  TotalBytesDownloaded:vector  ETV
attr source  ContentManager_TotalBytesDownloaded
attr title  "Total of Bytes Downloaded, vector"
attr unit  B
vector 951  BasicTopology.peer[15].bitTorrentApp.bitTorrentClient.contentManager_26  PiecesDownloaded:vector  ETV
attr source  ContentManager_PieceDownloaded
attr title  "Pieces Downloaded, vector"
vector 968  BasicTopology.peer[17].bitTorrentApp.bitTorrentClient.contentManager_26  TotalBytesDownloaded:vector  ETV
attr source  ContentManager_TotalBytesDownloaded
attr title  "Total of Bytes Downloaded, vector"
attr unit  B
vector 943  BasicTopology.peer[14].bitTorrentApp.bitTorrentClient.contentManager_26  PiecesDownloaded:vector  ETV
attr source  ContentManager_PieceDownloaded
attr title  "Pieces Downloaded, vector"
vector 871  BasicTopology.peer[5].bitTorrentApp.bitTorrentClient.contentManager_26  PiecesDownloaded:vector  ETV
attr source  ContentManager_PieceDownloaded
attr title  "Pieces Downloaded, vector"
vector 849  BasicTopology.peer[2].bitTorrentApp.bitTorrentClient.contentManager_26  TotalBytesUploaded:vector  ETV
attr source  ContentManager_TotalBytesUploaded
attr title  "Total of Bytes Uploaded, vector"
attr unit  B
vector 967  BasicTopology.peer[17].bitTorrentApp.bitTorrentClient.contentManager_26  PiecesDownloaded:vector  ETV
attr source  ContentManager_PieceDownloaded
attr title  "Pieces Downloaded, vector"
vector 903  BasicTopology.peer[9].bitTorrentApp.bitTorrentClient.contentManager_26  PiecesDownloaded:vector  ETV
attr source  ContentManager_PieceDownloaded
attr title  "Pieces Downloaded, vector"
vector 895  BasicTopology.peer[8].bitTorrentApp.bitTorrentClient.contentManager_26  PiecesDownloaded:vector  ETV
attr source  ContentManager_PieceDownloaded
attr title  "Pieces Downloaded, vector"
vector 1025  BasicTopology.peer[24].bitTorrentApp.bitTorrentClient.contentManager_26  TotalBytesUploaded:vector  ETV
attr source  ContentManager_TotalBytesUploaded
attr title  "Total of Bytes Uploaded, vector"
attr unit  B
vector 888  BasicTopology.peer[7].bitTorrentApp.bitTorrentClient.contentManager_26  TotalBytesDownloaded:vector  ETV
attr source  ContentManager_TotalBytesDownloaded
attr title  "Total of Bytes Downloaded, vector"
attr unit  B
vector 983  BasicTopology.peer[19].bitTorrentApp.bitTorrentClient.contentManager_26  PiecesDownloaded:vector  ETV
attr source  ContentManager_PieceDownloaded
attr title  "Pieces Downloaded, vector"
vector 887  BasicTopology.peer[7].bitTorrentApp.bitTorrentClient.contentManager_26  PiecesDownloaded:vector  ETV
attr source  ContentManager_PieceDownloaded
attr title  "Pieces Downloaded, vector"
vector 889  BasicTopology.peer[7].bitTorrentApp.bitTorrentClient.contentManager_26  TotalBytesUploaded:vector  ETV
attr source  ContentManager_TotalBytesUploaded
attr title  "Total of Bytes Uploaded, vector"
attr unit  B
vector 945  BasicTopology.peer[14].bitTorrentApp.bitTorrentClient.contentManager_26  TotalBytesUploaded:vector  ETV
attr source  ContentManager_TotalBytesUploaded
attr title  "Total of Bytes Uploaded, vector"
attr unit  B
vector 873  BasicTopology.peer[5].bitTorrentApp.bitTorrentClient.contentManager_26  TotalBytesUploaded:vector  ETV
attr source  ContentManager_TotalBytesUploaded
attr title  "Total of Bytes Uploaded, vector"
attr unit  B
vector 905  BasicTopology.peer[9].bitTorrentApp.bitTorrentClient.contentManager_26  TotalBytesUploaded:vector  ETV
attr source  ContentManager_TotalBytesUploaded
attr title  "Total of Bytes Uploaded, vector"
attr unit  B
vector 969  BasicTopology.peer[17].bitTorrentApp.bitTorrentClient.contentManager_26  TotalBytesUploaded:vector  ETV
attr source  ContentManager_TotalBytesUploaded
attr title  "Total of Bytes Uploaded, vector"
attr unit  B
3	85	36001	36001
3	45941759	36079.041136887319	36079.041136887
5	86	36001	36001
5	53292387	36092.253654875448	36092.253654875
7	87	36001	36001
7	54340484	36094.281623351696	36094.281623352
9	88	36001	36001
9	56461870	36098.456022976847	36098.456022977
11	89	36001	36001
11	73035662	36131.706023662128	36131.706023662
13	90	36001	36001
13	81937610	36175.937625982486	36175.937625982
15	91	36001	36001
15	80062148	36148.161479366195	36148.161479366
17	92	36001	36001
17	79241362	36144.188296701977	36144.188296702
19	93	36001	36001
19	74773654	36135.145923846308	36135.145923846
21	94	36001	36001
21	25041038	36045.848438185632	36045.848438186
23	95	36001	36001
23	72787156	36131.223408310966	36131.223408311
25	96	36001	36001
25	63254756	36111.726273395315	36111.726273395
27	97	36001	36001
27	73506956	36132.788500142681	36132.788500143
29	98	36001	36001
29	72450179	36130.35657199825	36130.356571998
31	99	36001	36001
31	81721973	36172.975748597662	36172.975748598
33	100	36001	36001
33	61760386	36108.831283619052	36108.831283619
35	101	36001	36001
35	68408015	36121.864057684305	36121.864057684
37	102	36001	36001
37	81107172	36153.975557113656	36153.975557114
39	103	36001	36001
39	80736090	36151.73138122374	36151.731381224
41	104	36001	36001
41	59435057	36104.334771441116	36104.334771441
43	105	36001	36001
43	28294805	36050.821539173568	36050.821539174
45	106	36001	36001
45	50108492	36086.267241152571	36086.267241153
47	107	36001	36001
47	80239405	36148.495268547754	36148.495268548
49	108	36001	36001
49	81322890	36167.283271121358	36167.283271121
833	107037	36001.09005679576	32768
833	115695	36001.116534256069	65536
833	116249	36001.118548933359	98304
833	116342	36001.119120865095	131072
833	125347	36001.126370509035	163840
833	139522	36001.139560475501	196608
833	140136	36001.140432430961	229376
833	150459	36001.151244752131	262144
833	159981	36001.163434279141	294912
833	160588	36001.167032132258	327680
833	255274	36001.584992678134	360448
833	258191	36001.595496128397	393216
833	258412	36001.59665187023	425984
833	261536	36001.607631689933	458752
833	263571	36001.614796637973	491520
833	264881	36001.618880891027	524288
833	270634	36001.627532284965	557056
833	280072	36001.643764186483	589824
833	281322	36001.645982719519	622592
833	281665	36001.647144226942	655360
833	289119	36001.66500944103	688128
833	289121	36001.665031268346	720896
833	306228	36001.687752656391	753664
833	307412	36001.691931606592	786432
833	309884	36001.700768268326	819200
833	312030	36001.705692679518	851968
833	313576	36001.70763624176	884736
833	313845	36001.708203317133	917504
833	313923	36001.709253588162	950272
833	319195	36001.729871700522	983040
833	319969	36001.733631191118	1015808
833	320141	36001.734060379792	1048576
833	334736	36001.783824693204	1081344
833	359001	36001.857249029654	1114112
833	371521	36001.903952609807	1146880
833	425489	36002.236936780451	1179648
833	438208	36002.268092471024	1212416
833	508175	36002.535061833504	1245184
833	524422	36002.555657892903	1277952
833	525288	36002.560957299523	1310720
833	526126	36002.590630314551	1343488
833	526133	36002.594862928879	1376256
833	526153	36002.598345264536	1409024
833	526155	36002.60674541865	1441792
833	526157	36002.609781338631	1474560
833	526159	36002.610413398641	1507328
833	526161	36002.620517168308	1540096
833	555447	36002.963392238199	1572864
833	602743	36003.046442841103	1605632
833	648792	36003.137235781732	1638400
833	792982	36003.666133366606	1671168
833	811977	36003.729316454722	1703936
833	825044	36003.774306923834	1736704
833	838890	36003.820183233449	1769472
833	857160	36003.880790258481	1802240
833	863611	36003.937823400057	1835008
833	871712	36003.96584550452	1867776
833	1066112	36004.20555880458	1900544
833	1082424	36004.265735230049	1933312
833	1264048	36004.917031664016	1966080
833	1279397	36004.967457698491	1998848
833	1326969	36005.05704244004	2031616
833	1348472	36005.096710425408	2064384
833	1360263	36005.135309402898	2097152
833	1366998	36005.157885142526	2129920
833	1372106	36005.318023699593	2162688
833	1374969	36005.328305708846	2195456
833	1655604	36006.072191682936	2228224
833	1747891	36006.227213880409	2260992
833	2185436	36007.168173653633	2293760
833	2204922	36007.217837862278	2326528
833	2220155	36007.26789340506	2359296
833	2223637	36007.279645992517	2392064
833	2223952	36007.280759835542	2424832
833	2224155	36007.281519297212	2457600
833	2224500	36007.282812170453	2490368
833	2224717	36007.283380891601	2523136
833	2225269	36007.285237685028	2555904
833	2225362	36007.285460215039	2588672
833	2228219	36007.294539035391	2621440
833	2238117	36007.327925357903	2654208
833	2436670	36007.634534748693	2686976
833	2454386	36007.67302556827	2719744
833	2463913	36007.697793183984	2752512
833	3156418	36009.425858166222	2785280
833	3291014	36009.732443551236	2818048
833	3296812	36009.7506688506	2850816
833	3307231	36009.781115182566	2883584
833	3316821	36009.800780362008	2916352
833	3346877	36009.859730826333	2949120
833	3358514	36009.8746706817	2981888
833	3369834	36009.900008303922	3014656
833	3393465	36009.945729721838	3047424
833	3812802	36010.592658351772	3080192
833	3867549	36010.677837015083	3112960
833	4075381	36010.976043418666	3145728
833	4075935	36010.976832077535	3178496
833	4573019	36012.062629339833	3211264
833	4601498	36012.122598634804	3244032
833	4619341	36012.164933014129	3276800
833	4633998	36012.213074690583	3309568
833	4683756	36012.385550845213	3342336
833	4710765	36012.466692989211	3375104
833	4718815	36012.495694003674	3407872
833	4738516	36012.565061619268	3440640
833	4754725	36012.625714675614	3473408
833	5349913	36013.730225974122	3506176
833	5388909	36013.816032887143	3538944
833	5961185	36015.060686918261	3571712
833	6096579	36015.256409590851	3604480
833	6129702	36015.297138854147	3637248
833	6153855	36015.32695652678	3670016
833	6183456	36015.364576736392	3702784
833	6192368	36015.374727693319	3735552
833	6789731	36016.40609388674	3768320
833	6807210	36016.430941349891	3801088
833	6831729	36016.467957506835	3833856
833	6961698	36016.673207388922	3866624
833	7474935	36017.509868121261	3899392
833	7486949	36017.537946211259	3932160
833	7583135	36017.752692328554	3964928
833	8267435	36018.84129847526	3997696
833	8315767	36018.917421671082	4030464
833	8350199	36018.964728572204	4063232
833	9574973	36021.050604077486	4096000
833	9608131	36021.09655003353	4128768
833	9608553	36021.09716519648	4161536
833	9608981	36021.097735310723	4194304
833	9614685	36021.106461430079	4227072
833	9635937	36021.146251305092	4259840
833	9637622	36021.150108390086	4292608
833	9638057	36021.151169984599	4325376
833	9638443	36021.151910325248	4358144
833	9638652	36021.152359027541	4390912
833	9640335	36021.156097639554	4423680
833	10110322	36021.992070982721	4456448
833	10250793	36022.148854627443	4489216
833	10271166	36022.179724005795	4521984
833	10271415	36022.18005628346	4554752
833	10282072	36022.197012982995	4587520
833	10286590	36022.203638311605	4620288
833	10286809	36022.203980218053	4653056
833	10295277	36022.21555437512	4685824
833	10296782	36022.217592685527	4718592
833	10297442	36022.218315544479	4751360
833	10304367	36022.228432689054	4784128
833	10354039	36022.296962951497	4816896
833	10419334	36022.396207399958	4849664
833	10870322	36022.997610021788	4882432
833	10888491	36023.022598306836	4915200
833	11197936	36023.529398090406	4947968
833	11569133	36024.116032210973	4980736
833	11604723	36024.175159017869	5013504
833	11833294	36024.582826465627	5046272
833	12194713	36025.137302696166	5079040
833	12272951	36025.243923401498	5111808
833	12840500	36026.273933615067	5144576
833	12897639	36026.343800319793	5177344
833	12945687	36026.431912290418	5210112
833	13012857	36026.513742449549	5242880
833	13062390	36026.569777166149	5275648
833	13151140	36026.701958979889	5308416
833	13193852	36026.763528950419	5341184
833	13568164	36027.355429606936	5373952
833	13618440	36027.421454161241	5406720
833	13755779	36027.635367185739	5439488
833	14509371	36028.830876357639	5472256
833	14568030	36028.898007226921	5505024
833	14652159	36029.016026165379	5537792
833	14709377	36029.089645235228	5570560
833	14761837	36029.159380122535	5603328
833	14843600	36029.276507497983	5636096
833	15049533	36029.583655155291	5668864
833	15111591	36029.679641153662	5701632
833	15623829	36030.401158943839	5734400
833	15704661	36030.531326256249	5767168
833	15810484	36030.800623426161	5799936
833	15863336	36030.893861933206	5832704
833	16024578	36031.138279088643	5865472
833	16027427	36031.141761671783	5898240
833	16028276	36031.143174170524	5931008
833	16029014	36031.144253699244	5963776
833	16029169	36031.144597840826	5996544
833	16029450	36031.145131300936	6029312
833	16035730	36031.155565642761	6062080
833	16038277	36031.159451757793	6094848
833	16040778	36031.163548437725	6127616
833	16045993	36031.172210206761	6160384
833	16563497	36032.047135494638	6193152
833	16582135	36032.075053336561	6225920
833	17366801	36033.285279133599	6258688
833	17441676	36033.400425880216	6291456
833	18588809	36035.225177236178	6324224
833	20495314	36038.376990594763	6356992
833	20545767	36038.470758970871	6389760
833	20886014	36038.990175736459	6422528
833	20890254	36038.996528483892	6455296
833	20891698	36039.000674924402	6488064
833	20897360	36039.013337774998	6520832
833	21227857	36039.566371144144	6553600
833	21794692	36040.472827460157	6586368
833	21898543	36040.60715331317	6619136
833	23238339	36042.901989179188	6651904
833	23797589	36043.890118389501	6684672
833	23862246	36043.982529655501	6717440
833	23907801	36044.048917413932	6750208
833	24061914	36044.323806000863	6782976
833	24062855	36044.325191662633	6815744