file 219188 1593887687                                          
version 2
run Test-12-20200526-12:15:08-5264
attr configname Test
attr datetime 20200526-12:15:08
attr experiment "\"Simulation Test\""
attr inifile BasicConfig.ini
attr iterationvars ""
attr iterationvars2 $repetition=12
attr measurement "\"Peers: $peers, Rate: $rate\""
attr network BasicTopology
attr processid 5264
attr repetition 12
attr replication #12
attr resultdir results
attr runnumber 12
attr seedset 12
vector 3  BasicTopology.peer[1].bitTorrentApp.bitTorrentClient  DownloadComplete_Test:vector  ETV
attr source BitTorrentClient_DownloadComplete_Test
attr title "Descargas completas (prueba), vector"
3	20811 63 85 45619096 36001 36076.830316801182 2 36001 36076.830316801 72077.830316801 2597609686.7073
vector 5  BasicTopology.peer[2].bitTorrentApp.bitTorrentClient  DownloadComplete_Test:vector  ETV
attr source BitTorrentClient_DownloadComplete_Test
attr title "Descargas completas (prueba), vector"
5	20874 63 86 60263056 36001 36106.007188552698 2 36001 36106.007188553 72107.007188553 2599715756.0998
vector 7  BasicTopology.peer[3].bitTorrentApp.bitTorrentClient  DownloadComplete_Test:vector  ETV
attr source BitTorrentClient_DownloadComplete_Test
attr title "Descargas completas (prueba), vector"
7	20937 63 87 46830695 36001 36078.970095641514 2 36001 36078.970095642 72079.970095642 2597764084.1622
vector 9  BasicTopology.peer[4].bitTorrentApp.bitTorrentClient  DownloadComplete_Test:vector  ETV
attr source BitTorrentClient_DownloadComplete_Test
attr title "Descargas completas (prueba), vector"
9	21000 63 88 60327918 36001 36106.128599554842 2 36001 36106.128599555 72107.128599555 2599724523.4476
vector 11  BasicTopology.peer[5].bitTorrentApp.bitTorrentClient  DownloadComplete_Test:vector  ETV
attr source BitTorrentClient_DownloadComplete_Test
attr title "Descargas completas (prueba), vector"
11	21063 64 89 83411906 36001 36307.529597029981 2 36001 36307.52959703 72308.52959703 2614308706.4392
vector 13  BasicTopology.peer[6].bitTorrentApp.bitTorrentClient  DownloadComplete_Test:vector  ETV
attr source BitTorrentClient_DownloadComplete_Test
attr title "Descargas completas (prueba), vector"
13	21127 64 90 83112533 36001 36306.428736369533 2 36001 36306.42873637 72307.42873637 2614228768.5891
vector 15  BasicTopology.peer[7].bitTorrentApp.bitTorrentClient  DownloadComplete_Test:vector  ETV
attr source BitTorrentClient_DownloadComplete_Test
attr title "Descargas completas (prueba), vector"
15	21191 65 91 75098368 36001 36139.818628548862 2 36001 36139.818628549 72140.818628549 2602158491.5044
vector 17  BasicTopology.peer[8].bitTorrentApp.bitTorrentClient  DownloadComplete_Test:vector  ETV
attr source BitTorrentClient_DownloadComplete_Test
attr title "Descargas completas (prueba), vector"
17	21256 64 92 68341572 36001 36122.669308389717 2 36001 36122.66930839 72123.66930839 2600919238.9633
vector 19  BasicTopology.peer[9].bitTorrentApp.bitTorrentClient  DownloadComplete_Test:vector  ETV
attr source BitTorrentClient_DownloadComplete_Test
attr title "Descargas completas (prueba), vector"
19	21320 65 93 78649808 36001 36150.593141830735 2 36001 36150.593141831 72151.593141831 2602937385.5062
vector 21  BasicTopology.peer[10].bitTorrentApp.bitTorrentClient  DownloadComplete_Test:vector  ETV
attr source BitTorrentClient_DownloadComplete_Test
attr title "Descargas completas (prueba), vector"
21	21385 65 94 68942624 36001 36123.870008296698 2 36001 36123.870008297 72124.870008297 2601005985.3763
vector 23  BasicTopology.peer[11].bitTorrentApp.bitTorrentClient  DownloadComplete_Test:vector  ETV
attr source BitTorrentClient_DownloadComplete_Test
attr title "Descargas completas (prueba), vector"
23	21450 64 95 42616104 36001 36071.298114579594 2 36001 36071.29811458 72072.29811458 2597210548.6709
vector 25  BasicTopology.peer[12].bitTorrentApp.bitTorrentClient  DownloadComplete_Test:vector  ETV
attr source BitTorrentClient_DownloadComplete_Test
attr title "Descargas completas (prueba), vector"
25	21514 64 96 76981969 36001 36144.11580103272 2 36001 36144.115801033 72145.115801033 2602469108.0385
vector 27  BasicTopology.peer[13].bitTorrentApp.bitTorrentClient  DownloadComplete_Test:vector  ETV
attr source BitTorrentClient_DownloadComplete_Test
attr title "Descargas completas (prueba), vector"
27	21578 65 97 72374508 36001 36132.261583832788 2 36001 36132.261583833 72133.261583833 2601612328.1625
vector 29  BasicTopology.peer[14].bitTorrentApp.bitTorrentClient  DownloadComplete_Test:vector  ETV
attr source BitTorrentClient_DownloadComplete_Test
attr title "Descargas completas (prueba), vector"
29	21643 65 98 78167018 36001 36147.550208947587 2 36001 36147.550208948 72148.550208948 2602717387.1084
vector 31  BasicTopology.peer[15].bitTorrentApp.bitTorrentClient  DownloadComplete_Test:vector  ETV
attr source BitTorrentClient_DownloadComplete_Test
attr title "Descargas completas (prueba), vector"
31	21708 65 99 75433739 36001 36140.406532025185 2 36001 36140.406532025 72141.406532025 2602200985.3
vector 33  BasicTopology.peer[16].bitTorrentApp.bitTorrentClient  DownloadComplete_Test:vector  ETV
attr source BitTorrentClient_DownloadComplete_Test
attr title "Descargas completas (prueba), vector"
33	21773 66 100 77864876 36001 36146.472831284991 2 36001 36146.472831285 72147.472831285 2602639499.1428
vector 35  BasicTopology.peer[17].bitTorrentApp.bitTorrentClient  DownloadComplete_Test:vector  ETV
attr source BitTorrentClient_DownloadComplete_Test
attr title "Descargas completas (prueba), vector"
35	21839 66 101 73614409 36001 36136.589162831816 2 36001 36136.589162832 72137.589162832 2601925077.3233
vector 37  BasicTopology.peer[18].bitTorrentApp.bitTorrentClient  DownloadComplete_Test:vector  ETV
attr source BitTorrentClient_DownloadComplete_Test
attr title "Descargas completas (prueba), vector"
37	21905 65 102 71346396 36001 36129.886301270255 2 36001 36129.88630127 72130.88630127 2601440685.1427
vector 39  BasicTopology.peer[19].bitTorrentApp.bitTorrentClient  DownloadComplete_Test:vector  ETV
attr source BitTorrentClient_DownloadComplete_Test
attr title "Descargas completas (prueba), vector"
39	21970 66 103 78338859 36001 36147.956599553179 2 36001 36147.956599553 72148.956599553 2602746767.3232
vector 41  BasicTopology.peer[20].bitTorrentApp.bitTorrentClient  DownloadComplete_Test:vector  ETV
attr source BitTorrentClient_DownloadComplete_Test
attr title "Descargas completas (prueba), vector"
41	22036 66 104 81697993 36001 36302.476103617127 2 36001 36302.476103617 72303.476103617 2613941772.2537
vector 43  BasicTopology.peer[21].bitTorrentApp.bitTorrentClient  DownloadComplete_Test:vector  ETV
attr source BitTorrentClient_DownloadComplete_Test
attr title "Descargas completas (prueba), vector"
43	22102 66 105 77355382 36001 36144.816758607416 2 36001 36144.816758607 72145.816758607 2602519779.5133
vector 45  BasicTopology.peer[22].bitTorrentApp.bitTorrentClient  DownloadComplete_Test:vector  ETV
attr source BitTorrentClient_DownloadComplete_Test
attr title "Descargas completas (prueba), vector"
45	22168 66 106 48447961 36001 36082.101816115104 2 36001 36082.101816115 72083.101816115 2597990072.4685
vector 47  BasicTopology.peer[23].bitTorrentApp.bitTorrentClient  DownloadComplete_Test:vector  ETV
attr source BitTorrentClient_DownloadComplete_Test
attr title "Descargas completas (prueba), vector"
47	22234 66 107 70937458 36001 36128.661646026218 2 36001 36128.661646026 72129.661646026 2601352193.333
vector 49  BasicTopology.peer[24].bitTorrentApp.bitTorrentClient  DownloadComplete_Test:vector  ETV
attr source BitTorrentClient_DownloadComplete_Test
attr title "Descargas completas (prueba), vector"
49	22300 65 108 72934490 36001 36134.34762513941 2 36001 36134.347625139 72135.347625139 2601763079.2944
vector 833  BasicTopology.peer[0].bitTorrentApp.bitTorrentClient.contentManager_26  TotalBytesUploaded:vector  ETV
attr source ContentManager_TotalBytesUploaded
attr title "Total of Bytes Uploaded, vector"
attr unit B
833	22365 12411 297950 67862291 36001.592961012134 36121.734426345564 316 32768 10354688 1641218048 1.1347460362338e+16
vector 920  BasicTopology.peer[11].bitTorrentApp.bitTorrentClient.contentManager_26  TotalBytesDownloaded:vector  ETV
attr source ContentManager_TotalBytesDownloaded
attr title "Total of Bytes Downloaded, vector"
attr unit B
920	117410 3746 324763 42616104 36001.645205906491 36071.298114579594 96 32768 3145728 152567808 3.2162433099366e+14
vector 919  BasicTopology.peer[11].bitTorrentApp.bitTorrentClient.contentManager_26  PiecesDownloaded:vector  ETV
attr source ContentManager_PieceDownloaded
attr title "Pieces Downloaded, vector"
919	117008 402 688656 42616104 36003.03552494042 36071.298114579594 12 0 11 66 506
vector 921  BasicTopology.peer[11].bitTorrentApp.bitTorrentClient.contentManager_26  TotalBytesUploaded:vector  ETV
attr source ContentManager_TotalBytesUploaded
attr title "Total of Bytes Uploaded, vector"
attr unit B
921	121156 12362 696134 82032417 36003.045697391203 36303.203335365894 314 32768 10289152 1620541440 1.1133698766275e+16
vector 912  BasicTopology.peer[10].bitTorrentApp.bitTorrentClient.contentManager_26  TotalBytesDownloaded:vector  ETV
attr source ContentManager_TotalBytesDownloaded
attr title "Total of Bytes Downloaded, vector"
attr unit B
912	108271 3765 1080759 68942624 36004.440984647034 36123.870008296698 96 32768 3145728 152567808 3.2162433099366e+14
vector 840  BasicTopology.peer[1].bitTorrentApp.bitTorrentClient.contentManager_26  TotalBytesDownloaded:vector  ETV
attr source ContentManager_TotalBytesDownloaded
attr title "Total of Bytes Downloaded, vector"
attr unit B
840	35179 3752 1088218 45619096 36004.464503516858 36076.830316801182 96 32768 3145728 152567808 3.2162433099366e+14
vector 1024  BasicTopology.peer[24].bitTorrentApp.bitTorrentClient.contentManager_26  TotalBytesDownloaded:vector  ETV
attr source ContentManager_TotalBytesDownloaded
attr title "Total of Bytes Downloaded, vector"
attr unit B
1024	213399 3889 1255233 72934490 36004.774618396861 36134.34762513941 96 32768 3145728 152567808 3.2162433099366e+14
vector 872  BasicTopology.peer[5].bitTorrentApp.bitTorrentClient.contentManager_26  TotalBytesDownloaded:vector  ETV
attr source ContentManager_TotalBytesDownloaded
attr title "Total of Bytes Downloaded, vector"
attr unit B
872	74740 3774 1570376 83411906 36005.615776425977 36307.529597029981 96 32768 3145728 152567808 3.2162433099366e+14
vector 911  BasicTopology.peer[10].bitTorrentApp.bitTorrentClient.contentManager_26  PiecesDownloaded:vector  ETV
attr source ContentManager_PieceDownloaded
attr title "Pieces Downloaded, vector"
911	107867 404 1931009 68942624 36006.682203913328 36123.870008296698 12 0 11 66 506
vector 913  BasicTopology.peer[10].bitTorrentApp.bitTorrentClient.contentManager_26  TotalBytesUploaded:vector  ETV
attr source ContentManager_TotalBytesUploaded
attr title "Total of Bytes Uploaded, vector"
attr unit B
913	112036 4972 1985399 72496593 36006.808677519888 36132.781654631543 127 32768 4161536 266338304 7.4182675136512e+14
vector 848  BasicTopology.peer[2].bitTorrentApp.bitTorrentClient.contentManager_26  TotalBytesDownloaded:vector  ETV
attr source ContentManager_TotalBytesDownloaded
attr title "Total of Bytes Downloaded, vector"
attr unit B
848	47101 3780 1989941 60263056 36006.821310521268 36106.007188552698 96 32768 3145728 152567808 3.2162433099366e+14
vector 904  BasicTopology.peer[9].bitTorrentApp.bitTorrentClient.contentManager_26  TotalBytesDownloaded:vector  ETV
attr source ContentManager_TotalBytesDownloaded
attr title "Total of Bytes Downloaded, vector"
attr unit B
904	102583 3778 2158689 78649808 36007.110970226135 36150.593141830735 96 32768 3145728 152567808 3.2162433099366e+14
vector 871  BasicTopology.peer[5].bitTorrentApp.bitTorrentClient.contentManager_26  PiecesDownloaded:vector  ETV
attr source ContentManager_PieceDownloaded
attr title "Pieces Downloaded, vector"
871	74336 404 2322229 83411906 36007.403930024906 36307.529597029981 12 0 11 66 506
vector 873  BasicTopology.peer[5].bitTorrentApp.bitTorrentClient.contentManager_26  TotalBytesUploaded:vector  ETV
attr source ContentManager_TotalBytesUploaded
attr title "Total of Bytes Uploaded, vector"
attr unit B
873	78514 4052 2333890 31441879 36007.418074698814 36053.508577046273 104 32768 3407872 178913280 4.0842991501312e+14
vector 944  BasicTopology.peer[14].bitTorrentApp.bitTorrentClient.contentManager_26  TotalBytesDownloaded:vector  ETV
attr source ContentManager_TotalBytesDownloaded
attr title "Total of Bytes Downloaded, vector"
attr unit B
944	149354 3782 2757991 78167018 36008.404054054083 36147.550208947587 96 32768 3145728 152567808 3.2162433099366e+14
vector 847  BasicTopology.peer[2].bitTorrentApp.bitTorrentClient.contentManager_26  PiecesDownloaded:vector  ETV
attr source ContentManager_PieceDownloaded
attr title "Pieces Downloaded, vector"
847	46693 408 2810241 60263056 36008.520244578088 36106.007188552698 12 0 11 66 506
vector 1023  BasicTopology.peer[24].bitTorrentApp.bitTorrentClient.contentManager_26  PiecesDownloaded:vector  ETV
attr source ContentManager_PieceDownloaded
attr title "Pieces Downloaded, vector"
1023	212980 419 2839928 72934490 36008.569954890944 36134.34762513941 12 0 11 66 506
vector 849  BasicTopology.peer[2].bitTorrentApp.bitTorrentClient.contentManager_26  TotalBytesUploaded:vector  ETV
attr source ContentManager_TotalBytesUploaded
attr title "Total of Bytes Uploaded, vector"
attr unit B
849	50881 7688 2858987 81651335 36008.595543973537 36301.042895680173 195 32768 6389760 626196480 2.6743365487821e+15
vector 888  BasicTopology.peer[7].bitTorrentApp.bitTorrentClient.contentManager_26  TotalBytesDownloaded:vector  ETV
attr source ContentManager_TotalBytesDownloaded
attr title "Total of Bytes Downloaded, vector"
attr unit B
888	91280 3788 2866706 75098368 36008.606620244417 36139.818628548862 96 32768 3145728 152567808 3.2162433099366e+14
vector 1025  BasicTopology.peer[24].bitTorrentApp.bitTorrentClient.contentManager_26  TotalBytesUploaded:vector  ETV
attr source ContentManager_TotalBytesUploaded
attr title "Total of Bytes Uploaded, vector"
attr unit B
1025	217288 1900 2899378 33509046 36008.656238564918 36056.674892539946 48 32768 1572864 38535168 40827959115776
vector 984  BasicTopology.peer[19].bitTorrentApp.bitTorrentClient.contentManager_26  TotalBytesDownloaded:vector  ETV
attr source ContentManager_TotalBytesDownloaded
attr title "Total of Bytes Downloaded, vector"
attr unit B
984	175920 3790 3002863 78338859 36008.848050452416 36147.956599553179 96 32768 3145728 152567808 3.2162433099366e+14
vector 864  BasicTopology.peer[4].bitTorrentApp.bitTorrentClient.contentManager_26  TotalBytesDownloaded:vector  ETV
attr source ContentManager_TotalBytesDownloaded
attr title "Total of Bytes Downloaded, vector"
attr unit B
864	68015 3825 3598235 60327918 36009.926285303013 36106.128599554842 97 32768 3178496 155746304 3.3172716781568e+14
vector 968  BasicTopology.peer[17].bitTorrentApp.bitTorrentClient.contentManager_26  TotalBytesDownloaded:vector  ETV
attr source ContentManager_TotalBytesDownloaded
attr title "Total of Bytes Downloaded, vector"
attr unit B
968	166481 3789 3843033 73614409 36010.279743992655 36136.589162831816 96 32768 3145728 152567808 3.2162433099366e+14
vector 928  BasicTopology.peer[12].bitTorrentApp.bitTorrentClient.contentManager_26  TotalBytesDownloaded:vector  ETV
attr source ContentManager_TotalBytesDownloaded
attr title "Total of Bytes Downloaded, vector"
attr unit B
928	133922 3778 3945583 76981969 36010.460115758251 36144.11580103272 96 32768 3145728 152567808 3.2162433099366e+14
vector 983  BasicTopology.peer[19].bitTorrentApp.bitTorrentClient.contentManager_26  PiecesDownloaded:vector  ETV
attr source ContentManager_PieceDownloaded
attr title "Pieces Downloaded, vector"
983	175511 409 4048144 78338859 36010.615911982006 36147.956599553179 12 0 11 66 506
vector 985  BasicTopology.peer[19].bitTorrentApp.bitTorrentClient.contentManager_26  TotalBytesUploaded:vector  ETV
attr source ContentManager_TotalBytesUploaded
attr title "Total of Bytes Uploaded, vector"
attr unit B
985	179710 1215 4072487 5536261 36010.646882783669 36013.341045398968 32 32768 1048576 17301504 12283606466560
vector 880  BasicTopology.peer[6].bitTorrentApp.bitTorrentClient.contentManager_26  TotalBytesDownloaded:vector  ETV
attr source ContentManager_TotalBytesDownloaded
attr title "Total of Bytes Downloaded, vector"
attr unit B
880	82974 3779 4124097 83112533 36010.726502368564 36306.428736369533 96 32768 3145728 152567808 3.2162433099366e+14
vector 927  BasicTopology.peer[12].bitTorrentApp.bitTorrentClient.contentManager_26  PiecesDownloaded:vector  ETV
attr source ContentManager_PieceDownloaded
attr title "Pieces Downloaded, vector"
927	133518 404 4305169 76981969 36010.967406031773 36144.11580103272 12 0 11 66 506
vector 929  BasicTopology.peer[12].bitTorrentApp.bitTorrentClient.contentManager_26  TotalBytesUploaded:vector  ETV
attr source ContentManager_TotalBytesUploaded
attr title "Total of Bytes Uploaded, vector"
attr unit B
929	137700 6130 4343098 74079707 36011.017726704102 36137.413479521042 156 32768 5111808 401276928 1.3718834213028e+15
vector 887  BasicTopology.peer[7].bitTorrentApp.bitTorrentClient.contentManager_26  PiecesDownloaded:vector  ETV
attr source ContentManager_PieceDownloaded
attr title "Pieces Downloaded, vector"
887	90872 408 4385466 75098368 36011.077718175638 36139.818628548862 12 0 11 66 506
vector 856  BasicTopology.peer[3].bitTorrentApp.bitTorrentClient.contentManager_26  TotalBytesDownloaded:vector  ETV
attr source ContentManager_TotalBytesDownloaded
attr title "Total of Bytes Downloaded, vector"
attr unit B
856	58977 4093 4404815 46830695 36011.119034804157 36078.970095641514 104 32768 3407872 178913280 4.0842991501312e+14
vector 936  BasicTopology.peer[13].bitTorrentApp.bitTorrentClient.contentManager_26  TotalBytesDownloaded:vector  ETV
attr source ContentManager_TotalBytesDownloaded
attr title "Total of Bytes Downloaded, vector"
attr unit B
936	144236 3780 4468257 72374508 36011.25173634522 36132.261583832788 96 32768 3145728 152567808 3.2162433099366e+14
vector 879  BasicTopology.peer[6].bitTorrentApp.bitTorrentClient.contentManager_26  PiecesDownloaded:vector  ETV
attr source ContentManager_PieceDownloaded
attr title "Pieces Downloaded, vector"
879	82566 408 4802677 83112533 36012.085488599862 36306.428736369533 12 0 11 66 506
vector 881  BasicTopology.peer[6].bitTorrentApp.bitTorrentClient.contentManager_26  TotalBytesUploaded:vector  ETV
attr source ContentManager_TotalBytesUploaded
attr title "Total of Bytes Uploaded, vector"
attr unit B
881	86753 4119 4841005 41180462 36012.137779550133 36068.997877834468 105 32768 3440640 182353920 4.2026791862272e+14
vector 896  BasicTopology.peer[8].bitTorrentApp.bitTorrentClient.contentManager_26  TotalBytesDownloaded:vector  ETV
attr source ContentManager_TotalBytesDownloaded
attr title "Total of Bytes Downloaded, vector"
attr unit B
896	96696 3784 4859950 68341572 36012.192625150327 36122.669308389717 96 32768 3145728 152567808 3.2162433099366e+14
vector 839  BasicTopology.peer[1].bitTorrentApp.bitTorrentClient.contentManager_26  PiecesDownloaded:vector  ETV
attr source ContentManager_PieceDownloaded
attr title "Pieces Downloaded, vector"
839	34776 403 5338340 45619096 36013.088710319981 36076.830316801182 12 0 11 66 506
vector 889  BasicTopology.peer[7].bitTorrentApp.bitTorrentClient.contentManager_26  TotalBytesUploaded:vector  ETV
attr source ContentManager_TotalBytesUploaded
attr title "Total of Bytes Uploaded, vector"
attr unit B
889	95068 1219 5408150 30730057 36013.176672473838 36052.569231018635 32 32768 1048576 17301504 12283606466560
vector 992  BasicTopology.peer[20].bitTorrentApp.bitTorrentClient.contentManager_26  TotalBytesDownloaded:vector  ETV
attr source ContentManager_TotalBytesDownloaded
attr title "Total of Bytes Downloaded, vector"
attr unit B
992	181335 3782 5501410 81697993 36013.299718374189 36302.476103617127 96 32768 3145728 152567808 3.2162433099366e+14
vector 976  BasicTopology.peer[18].bitTorrentApp.bitTorrentClient.contentManager_26  TotalBytesDownloaded:vector  ETV
attr source ContentManager_TotalBytesDownloaded
attr title "Total of Bytes Downloaded, vector"
attr unit B
976	170987 3907 5525347 71346396 36013.327890155777 36129.886301270255 99 32768 3244032 162201600 3.525631279104e+14
vector 1008  BasicTopology.peer[22].bitTorrentApp.bitTorrentClient.contentManager_26  TotalBytesDownloaded:vector  ETV
attr source ContentManager_TotalBytesDownloaded
attr title "Total of Bytes Downloaded, vector"
attr unit B
1008	196616 3881 5734157 48447961 36013.64952730764 36082.101816115104 96 32768 3145728 152567808 3.2162433099366e+14
vector 1016  BasicTopology.peer[23].bitTorrentApp.bitTorrentClient.contentManager_26  TotalBytesDownloaded:vector  ETV
attr source ContentManager_TotalBytesDownloaded
attr title "Total of Bytes Downloaded, vector"
attr unit B
1016	204524 3879 6345347 70937458 36014.695230407423 36128.661646026218 96 32768 3145728 152567808 3.2162433099366e+14
vector 975  BasicTopology.peer[18].bitTorrentApp.bitTorrentClient.contentManager_26  PiecesDownloaded:vector  ETV
attr source ContentManager_PieceDownloaded
attr title "Pieces Downloaded, vector"
975	170579 408 7029160 71346396 36015.769182566521 36129.886301270255 12 0 11 66 506
vector 841  BasicTopology.peer[1].bitTorrentApp.bitTorrentClient.contentManager_26  TotalBytesUploaded:vector  ETV
attr source ContentManager_TotalBytesUploaded
attr title "Total of Bytes Uploaded, vector"
attr unit B
841	38931 7762 7031373 72697441 36015.771138474455 36133.355023356928 196 32768 6422528 632619008 2.7155854146929e+15
vector 1000  BasicTopology.peer[21].bitTorrentApp.bitTorrentClient.contentManager_26  TotalBytesDownloaded:vector  ETV
attr source ContentManager_TotalBytesDownloaded
attr title "Total of Bytes Downloaded, vector"
attr unit B
1000	189324 3877 7928288 77355382 36017.105491995489 36144.816758607416 96 32768 3145728 152567808 3.2162433099366e+14
vector 943  BasicTopology.peer[14].bitTorrentApp.bitTorrentClient.contentManager_26  PiecesDownloaded:vector  ETV
attr source ContentManager_PieceDownloaded
attr title "Pieces Downloaded, vector"
943	148946 408 7940366 78167018 36017.124001095724 36147.550208947587 12 0 11 66 506
vector 895  BasicTopology.peer[8].bitTorrentApp.bitTorrentClient.contentManager_26  PiecesDownloaded:vector  ETV
attr source ContentManager_PieceDownloaded
attr title "Pieces Downloaded, vector"
895	96287 409 8535217 68341572 36017.955139804812 36122.669308389717 12 0 11 66 506
vector 897  BasicTopology.peer[8].bitTorrentApp.bitTorrentClient.contentManager_26  TotalBytesUploaded:vector  ETV
attr source ContentManager_TotalBytesUploaded
attr title "Total of Bytes Uploaded, vector"
attr unit B
897	100480 1699 8555291 72391235 36017.979152152639 36132.305694181502 44 32768 1441792 32440320 31535797370880
vector 903  BasicTopology.peer[9].bitTorrentApp.bitTorrentClient.contentManager_26  PiecesDownloaded:vector  ETV
attr source ContentManager_PieceDownloaded
attr title "Pieces Downloaded, vector"
903	102179 404 9003073 78649808 36018.643649980096 36150.593141830735 12 0 11 66 506
vector 863  BasicTopology.peer[4].bitTorrentApp.bitTorrentClient.contentManager_26  PiecesDownloaded:vector  ETV
attr source ContentManager_PieceDownloaded
attr title "Pieces Downloaded, vector"
863	67608 407 9087037 60327918 36018.757659780975 36106.128599554842 12 0 11 66 506
vector 865  BasicTopology.peer[4].bitTorrentApp.bitTorrentClient.contentManager_26  TotalBytesUploaded:vector  ETV
attr source ContentManager_TotalBytesUploaded
attr title "Total of Bytes Uploaded, vector"
attr unit B
865	71840 2496 9124000 51455550 36018.800028140261 36088.208941026729 64 32768 2097152 68157440 96035468738560
vector 855  BasicTopology.peer[3].bitTorrentApp.bitTorrentClient.contentManager_26  PiecesDownloaded:vector  ETV
attr source ContentManager_PieceDownloaded
attr title "Pieces Downloaded, vector"
855	58569 408 9386048 46830695 36019.120737926449 36078.970095641514 12 0 11 66 506
vector 857  BasicTopology.peer[3].bitTorrentApp.bitTorrentClient.contentManager_26  TotalBytesUploaded:vector  ETV
attr source ContentManager_TotalBytesUploaded
attr title "Total of Bytes Uploaded, vector"
attr unit B
857	63070 4538 9421498 42253389 36019.166803657865 36070.658690533035 115 32768 3768320 218562560 5.5146306338816e+14
vector 952  BasicTopology.peer[15].bitTorrentApp.bitTorrentClient.contentManager_26  TotalBytesDownloaded:vector  ETV
attr source ContentManager_TotalBytesDownloaded
attr title "Total of Bytes Downloaded, vector"
attr unit B
952	153849 4110 9612605 75433739 36019.420465955757 36140.406532025185 104 32768 3407872 178913280 4.0842991501312e+14
vector 905  BasicTopology.peer[9].bitTorrentApp.bitTorrentClient.contentManager_26  TotalBytesUploaded:vector  ETV
attr source ContentManager_TotalBytesUploaded
attr title "Total of Bytes Uploaded, vector"
attr unit B
905	106361 1506 9653621 74376475 36019.470534268641 36138.35465691237 39 32768 1277952 25559040 22054657064960
vector 1015  BasicTopology.peer[23].bitTorrentApp.bitTorrentClient.contentManager_26  PiecesDownloaded:vector  ETV
attr source ContentManager_PieceDownloaded
attr title "Pieces Downloaded, vector"
1015	204104 420 9791257 70937458 36019.648781031892 36128.661646026218 12 0 11 66 506
vector 1017  BasicTopology.peer[23].bitTorrentApp.bitTorrentClient.contentManager_26  TotalBytesUploaded:vector  ETV
attr source ContentManager_TotalBytesUploaded
attr title "Total of Bytes Uploaded, vector"
attr unit B
1017	208403 4577 9837368 70979127 36019.713622264263 36128.728337596313 113 32768 3702784 211058688 5.2330847902106e+14
vector 935  BasicTopology.peer[13].bitTorrentApp.bitTorrentClient.contentManager_26  PiecesDownloaded:vector  ETV
attr source ContentManager_PieceDownloaded
attr title "Pieces Downloaded, vector"
935	143830 406 9907836 72374508 36019.829417851104 36132.261583832788 12 0 11 66 506
vector 967  BasicTopology.peer[17].bitTorrentApp.bitTorrentClient.contentManager_26  PiecesDownloaded:vector  ETV
attr source ContentManager_PieceDownloaded
attr title "Pieces Downloaded, vector"
967	166073 408 9991384 73614409 36019.944326414772 36136.589162831816 12 0 11 66 506
vector 960  BasicTopology.peer[16].bitTorrentApp.bitTorrentClient.contentManager_26  TotalBytesDownloaded:vector  ETV
attr source ContentManager_TotalBytesDownloaded
attr title "Total of Bytes Downloaded, vector"
attr unit B
960	161685 4388 10307429 77864876 36020.519909718527 36146.472831284991 111 32768 3637248 203685888 4.9612885223014e+14
vector 1007  BasicTopology.peer[22].bitTorrentApp.bitTorrentClient.contentManager_26  PiecesDownloaded:vector  ETV
attr source ContentManager_PieceDownloaded
attr title "Pieces Downloaded, vector"
1007	196194 422 10584478 48447961 36020.880166022982 36082.101816115104 12 0 11 66 506
vector 1009  BasicTopology.peer[22].bitTorrentApp.bitTorrentClient.contentManager_26  TotalBytesUploaded:vector  ETV
attr source ContentManager_TotalBytesUploaded
attr title "Total of Bytes Uploaded, vector"
attr unit B
1009	200497 3607 10658280 60193799 36020.978362320697 36105.856728997376 89 32768 2916352 131235840 2.5658671497216e+14
vector 999  BasicTopology.peer[21].bitTorrentApp.bitTorrentClient.contentManager_26  PiecesDownloaded:vector  ETV
attr source ContentManager_PieceDownloaded
attr title "Pieces Downloaded, vector"
999	188917 407 10747364 77355382 36021.093851000407 36144.816758607416 12 0 11 66 506
vector 977  BasicTopology.peer[18].bitTorrentApp.bitTorrentClient.contentManager_26  TotalBytesUploaded:vector  ETV
attr source ContentManager_TotalBytesUploaded
attr title "Total of Bytes Uploaded, vector"
attr unit B
977	174894 617 12172265 38436314 36023.012709007259 36064.701254299976 16 32768 524288 4456448 1606317768704
vector 1001  BasicTopology.peer[21].bitTorrentApp.bitTorrentClient.contentManager_26  TotalBytesUploaded:vector  ETV
attr source ContentManager_TotalBytesUploaded
attr title "Total of Bytes Uploaded, vector"
attr unit B
1001	193201 2993 12629144 53653439 36023.773165354789 36092.980153775261 74 32768 2424832 90931200 1.479884668928e+14
vector 991  BasicTopology.peer[20].bitTorrentApp.bitTorrentClient.contentManager_26  PiecesDownloaded:vector  ETV
attr source ContentManager_PieceDownloaded
attr title "Pieces Downloaded, vector"
991	180925 410 12820656 81697993 36024.015544400203 36302.476103617127 12 0 11 66 506
vector 951  BasicTopology.peer[15].bitTorrentApp.bitTorrentClient.contentManager_26  PiecesDownloaded:vector  ETV
attr source ContentManager_PieceDownloaded
attr title "Pieces Downloaded, vector"
951	153444 405 13795474 75433739 36025.5295630016 36140.406532025185 12 0 11 66 506
vector 993  BasicTopology.peer[20].bitTorrentApp.bitTorrentClient.contentManager_26  TotalBytesUploaded:vector  ETV
attr source ContentManager_TotalBytesUploaded
attr title "Total of Bytes Uploaded, vector"
attr unit B
993	185117 3800 14569716 82478605 36026.725953043786 36304.330785594577 96 32768 3145728 152567808 3.2162433099366e+14
vector 959  BasicTopology.peer[16].bitTorrentApp.bitTorrentClient.contentManager_26  PiecesDownloaded:vector  ETV
attr source ContentManager_PieceDownloaded
attr title "Pieces Downloaded, vector"
959	161276 409 15364681 77864876 36027.95404361384 36146.472831284991 12 0 11 66 506
vector 953  BasicTopology.peer[15].bitTorrentApp.bitTorrentClient.contentManager_26  TotalBytesUploaded:vector  ETV
attr source ContentManager_TotalBytesUploaded
attr title "Total of Bytes Uploaded, vector"
attr unit B
953	157959 3317 27094220 48372537 36046.924872467665 36081.935571764778 84 32768 2752512 116981760 2.1594021822464e+14
vector 937  BasicTopology.peer[13].bitTorrentApp.bitTorrentClient.contentManager_26  TotalBytesUploaded:vector  ETV
attr source ContentManager_TotalBytesUploaded
attr title "Total of Bytes Uploaded, vector"