version 2
run Test-24-20200526-12:16:23-5366
attr configname Test
attr datetime 20200526-12:16:23
attr experiment "\"Simulation Test\""
attr inifile BasicConfig.ini
attr iterationvars ""
attr iterationvars2 $repetition=24
attr measurement "\"Peers: $peers, Rate: $rate\""
attr network BasicTopology
attr processid 5366
attr repetition 24
attr replication #24
attr resultdir results
attr runnumber 24
attr seedset 24

vector 3  BasicTopology.peer[1].bitTorrentApp.bitTorrentClient  DownloadComplete_Test:vector  ETV
attr source  BitTorrentClient_DownloadComplete_Test
attr title  "Descargas completas (prueba), vector"
vector 5  BasicTopology.peer[2].bitTorrentApp.bitTorrentClient  DownloadComplete_Test:vector  ETV
attr source  BitTorrentClient_DownloadComplete_Test
attr title  "Descargas completas (prueba), vector"
vector 7  BasicTopology.peer[3].bitTorrentApp.bitTorrentClient  DownloadComplete_Test:vector  ETV
attr source  BitTorrentClient_DownloadComplete_Test
attr title  "Descargas completas (prueba), vector"
vector 9  BasicTopology.peer[4].bitTorrentApp.bitTorrentClient  DownloadComplete_Test:vector  ETV
attr source  BitTorrentClient_DownloadComplete_Test
attr title  "Descargas completas (prueba), vector"
vector 11  BasicTopology.peer[5].bitTorrentApp.bitTorrentClient  DownloadComplete_Test:vector  ETV
attr source  BitTorrentClient_DownloadComplete_Test
attr title  "Descargas completas (prueba), vector"
vector 13  BasicTopology.peer[6].bitTorrentApp.bitTorrentClient  DownloadComplete_Test:vector  ETV
attr source  BitTorrentClient_DownloadComplete_Test
attr title  "Descargas completas (prueba), vector"
vector 15  BasicTopology.peer[7].bitTorrentApp.bitTorrentClient  DownloadComplete_Test:vector  ETV
attr source  BitTorrentClient_DownloadComplete_Test
attr title  "Descargas completas (prueba), vector"
vector 17  BasicTopology.peer[8].bitTorrentApp.bitTorrentClient  DownloadComplete_Test:vector  ETV
attr source  BitTorrentClient_DownloadComplete_Test
attr title  "Descargas completas (prueba), vector"
vector 19  BasicTopology.peer[9].bitTorrentApp.bitTorrentClient  DownloadComplete_Test:vector  ETV
attr source  BitTorrentClient_DownloadComplete_Test
attr title  "Descargas completas (prueba), vector"
vector 21  BasicTopology.peer[10].bitTorrentApp.bitTorrentClient  DownloadComplete_Test:vector  ETV
attr source  BitTorrentClient_DownloadComplete_Test
attr title  "Descargas completas (prueba), vector"
vector 23  BasicTopology.peer[11].bitTorrentApp.bitTorrentClient  DownloadComplete_Test:vector  ETV
attr source  BitTorrentClient_DownloadComplete_Test
attr title  "Descargas completas (prueba), vector"
vector 25  BasicTopology.peer[12].bitTorrentApp.bitTorrentClient  DownloadComplete_Test:vector  ETV
attr source  BitTorrentClient_DownloadComplete_Test
attr title  "Descargas completas (prueba), vector"
vector 27  BasicTopology.peer[13].bitTorrentApp.bitTorrentClient  DownloadComplete_Test:vector  ETV
attr source  BitTorrentClient_DownloadComplete_Test
attr title  "Descargas completas (prueba), vector"
vector 29  BasicTopology.peer[14].bitTorrentApp.bitTorrentClient  DownloadComplete_Test:vector  ETV
attr source  BitTorrentClient_DownloadComplete_Test
attr title  "Descargas completas (prueba), vector"
vector 31  BasicTopology.peer[15].bitTorrentApp.bitTorrentClient  DownloadComplete_Test:vector  ETV
attr source  BitTorrentClient_DownloadComplete_Test
attr title  "Descargas completas (prueba), vector"
vector 33  BasicTopology.peer[16].bitTorrentApp.bitTorrentClient  DownloadComplete_Test:vector  ETV
attr source  BitTorrentClient_DownloadComplete_Test
attr title  "Descargas completas (prueba), vector"
vector 35  BasicTopology.peer[17].bitTorrentApp.bitTorrentClient  DownloadComplete_Test:vector  ETV
attr source  BitTorrentClient_DownloadComplete_Test
attr title  "Descargas completas (prueba), vector"
vector 37  BasicTopology.peer[18].bitTorrentApp.bitTorrentClient  DownloadComplete_Test:vector  ETV
attr source  BitTorrentClient_DownloadComplete_Test
attr title  "Descargas completas (prueba), vector"
vector 39  BasicTopology.peer[19].bitTorrentApp.bitTorrentClient  DownloadComplete_Test:vector  ETV
attr source  BitTorrentClient_DownloadComplete_Test
attr title  "Descargas completas (prueba), vector"
vector 41  BasicTopology.peer[20].bitTorrentApp.bitTorrentClient  DownloadComplete_Test:vector  ETV
attr source  BitTorrentClient_DownloadComplete_Test
attr title  "Descargas completas (prueba), vector"
vector 43  BasicTopology.peer[21].bitTorrentApp.bitTorrentClient  DownloadComplete_Test:vector  ETV
attr source  BitTorrentClient_DownloadComplete_Test
attr title  "Descargas completas (prueba), vector"
vector 45  BasicTopology.peer[22].bitTorrentApp.bitTorrentClient  DownloadComplete_Test:vector  ETV
attr source  BitTorrentClient_DownloadComplete_Test
attr title  "Descargas completas (prueba), vector"
vector 47  BasicTopology.peer[23].bitTorrentApp.bitTorrentClient  DownloadComplete_Test:vector  ETV
attr source  BitTorrentClient_DownloadComplete_Test
attr title  "Descargas completas (prueba), vector"
vector 49  BasicTopology.peer[24].bitTorrentApp.bitTorrentClient  DownloadComplete_Test:vector  ETV
attr source  BitTorrentClient_DownloadComplete_Test
attr title  "Descargas completas (prueba), vector"
vector 833  BasicTopology.peer[0].bitTorrentApp.bitTorrentClient.contentManager_26  TotalBytesUploaded:vector  ETV
attr source  ContentManager_TotalBytesUploaded
attr title  "Total of Bytes Uploaded, vector"
attr unit  B
vector 936  BasicTopology.peer[13].bitTorrentApp.bitTorrentClient.contentManager_26  TotalBytesDownloaded:vector  ETV
attr source  ContentManager_TotalBytesDownloaded
attr title  "Total of Bytes Downloaded, vector"
attr unit  B
vector 1000  BasicTopology.peer[21].bitTorrentApp.bitTorrentClient.contentManager_26  TotalBytesDownloaded:vector  ETV
attr source  ContentManager_TotalBytesDownloaded
attr title  "Total of Bytes Downloaded, vector"
attr unit  B
vector 880  BasicTopology.peer[6].bitTorrentApp.bitTorrentClient.contentManager_26  TotalBytesDownloaded:vector  ETV
attr source  ContentManager_TotalBytesDownloaded
attr title  "Total of Bytes Downloaded, vector"
attr unit  B
vector 935  BasicTopology.peer[13].bitTorrentApp.bitTorrentClient.contentManager_26  PiecesDownloaded:vector  ETV
attr source  ContentManager_PieceDownloaded
attr title  "Pieces Downloaded, vector"
vector 937  BasicTopology.peer[13].bitTorrentApp.bitTorrentClient.contentManager_26  TotalBytesUploaded:vector  ETV
attr source  ContentManager_TotalBytesUploaded
attr title  "Total of Bytes Uploaded, vector"
attr unit  B
vector 999  BasicTopology.peer[21].bitTorrentApp.bitTorrentClient.contentManager_26  PiecesDownloaded:vector  ETV
attr source  ContentManager_PieceDownloaded
attr title  "Pieces Downloaded, vector"
vector 1001  BasicTopology.peer[21].bitTorrentApp.bitTorrentClient.contentManager_26  TotalBytesUploaded:vector  ETV
attr source  ContentManager_TotalBytesUploaded
attr title  "Total of Bytes Uploaded, vector"
attr unit  B
vector 920  BasicTopology.peer[11].bitTorrentApp.bitTorrentClient.contentManager_26  TotalBytesDownloaded:vector  ETV
attr source  ContentManager_TotalBytesDownloaded
attr title  "Total of Bytes Downloaded, vector"
attr unit  B
vector 968  BasicTopology.peer[17].bitTorrentApp.bitTorrentClient.contentManager_26  TotalBytesDownloaded:vector  ETV
attr source  ContentManager_TotalBytesDownloaded
attr title  "Total of Bytes Downloaded, vector"
attr unit  B
vector 864  BasicTopology.peer[4].bitTorrentApp.bitTorrentClient.contentManager_26  TotalBytesDownloaded:vector  ETV
attr source  ContentManager_TotalBytesDownloaded
attr title  "Total of Bytes Downloaded, vector"
attr unit  B
vector 928  BasicTopology.peer[12].bitTorrentApp.bitTorrentClient.contentManager_26  TotalBytesDownloaded:vector  ETV
attr source  ContentManager_TotalBytesDownloaded
attr title  "Total of Bytes Downloaded, vector"
attr unit  B
vector 848  BasicTopology.peer[2].bitTorrentApp.bitTorrentClient.contentManager_26  TotalBytesDownloaded:vector  ETV
attr source  ContentManager_TotalBytesDownloaded
attr title  "Total of Bytes Downloaded, vector"
attr unit  B
vector 888  BasicTopology.peer[7].bitTorrentApp.bitTorrentClient.contentManager_26  TotalBytesDownloaded:vector  ETV
attr source  ContentManager_TotalBytesDownloaded
attr title  "Total of Bytes Downloaded, vector"
attr unit  B
vector 879  BasicTopology.peer[6].bitTorrentApp.bitTorrentClient.contentManager_26  PiecesDownloaded:vector  ETV
attr source  ContentManager_PieceDownloaded
attr title  "Pieces Downloaded, vector"
vector 881  BasicTopology.peer[6].bitTorrentApp.bitTorrentClient.contentManager_26  TotalBytesUploaded:vector  ETV
attr source  ContentManager_TotalBytesUploaded
attr title  "Total of Bytes Uploaded, vector"
attr unit  B
vector 896  BasicTopology.peer[8].bitTorrentApp.bitTorrentClient.contentManager_26  TotalBytesDownloaded:vector  ETV
attr source  ContentManager_TotalBytesDownloaded
attr title  "Total of Bytes Downloaded, vector"
attr unit  B
vector 919  BasicTopology.peer[11].bitTorrentApp.bitTorrentClient.contentManager_26  PiecesDownloaded:vector  ETV
attr source  ContentManager_PieceDownloaded
attr title  "Pieces Downloaded, vector"
vector 921  BasicTopology.peer[11].bitTorrentApp.bitTorrentClient.contentManager_26  TotalBytesUploaded:vector  ETV
attr source  ContentManager_TotalBytesUploaded
attr title  "Total of Bytes Uploaded, vector"
attr unit  B
vector 856  BasicTopology.peer[3].bitTorrentApp.bitTorrentClient.contentManager_26  TotalBytesDownloaded:vector  ETV
attr source  ContentManager_TotalBytesDownloaded
attr title  "Total of Bytes Downloaded, vector"
attr unit  B
vector 904  BasicTopology.peer[9].bitTorrentApp.bitTorrentClient.contentManager_26  TotalBytesDownloaded:vector  ETV
attr source  ContentManager_TotalBytesDownloaded
attr title  "Total of Bytes Downloaded, vector"
attr unit  B
vector 895  BasicTopology.peer[8].bitTorrentApp.bitTorrentClient.contentManager_26  PiecesDownloaded:vector  ETV
attr source  ContentManager_PieceDownloaded
attr title  "Pieces Downloaded, vector"
vector 897  BasicTopology.peer[8].bitTorrentApp.bitTorrentClient.contentManager_26  TotalBytesUploaded:vector  ETV
attr source  ContentManager_TotalBytesUploaded
attr title  "Total of Bytes Uploaded, vector"
attr unit  B
vector 840  BasicTopology.peer[1].bitTorrentApp.bitTorrentClient.contentManager_26  TotalBytesDownloaded:vector  ETV
attr source  ContentManager_TotalBytesDownloaded
attr title  "Total of Bytes Downloaded, vector"
attr unit  B
vector 1016  BasicTopology.peer[23].bitTorrentApp.bitTorrentClient.contentManager_26  TotalBytesDownloaded:vector  ETV
attr source  ContentManager_TotalBytesDownloaded
attr title  "Total of Bytes Downloaded, vector"
attr unit  B
vector 903  BasicTopology.peer[9].bitTorrentApp.bitTorrentClient.contentManager_26  PiecesDownloaded:vector  ETV
attr source  ContentManager_PieceDownloaded
attr title  "Pieces Downloaded, vector"
vector 905  BasicTopology.peer[9].bitTorrentApp.bitTorrentClient.contentManager_26  TotalBytesUploaded:vector  ETV
attr source  ContentManager_TotalBytesUploaded
attr title  "Total of Bytes Uploaded, vector"
attr unit  B
vector 1008  BasicTopology.peer[22].bitTorrentApp.bitTorrentClient.contentManager_26  TotalBytesDownloaded:vector  ETV
attr source  ContentManager_TotalBytesDownloaded
attr title  "Total of Bytes Downloaded, vector"
attr unit  B
vector 847  BasicTopology.peer[2].bitTorrentApp.bitTorrentClient.contentManager_26  PiecesDownloaded:vector  ETV
attr source  ContentManager_PieceDownloaded
attr title  "Pieces Downloaded, vector"
vector 927  BasicTopology.peer[12].bitTorrentApp.bitTorrentClient.contentManager_26  PiecesDownloaded:vector  ETV
attr source  ContentManager_PieceDownloaded
attr title  "Pieces Downloaded, vector"
vector 929  BasicTopology.peer[12].bitTorrentApp.bitTorrentClient.contentManager_26  TotalBytesUploaded:vector  ETV
attr source  ContentManager_TotalBytesUploaded
attr title  "Total of Bytes Uploaded, vector"
attr unit  B
vector 1015  BasicTopology.peer[23].bitTorrentApp.bitTorrentClient.contentManager_26  PiecesDownloaded:vector  ETV
attr source  ContentManager_PieceDownloaded
attr title  "Pieces Downloaded, vector"
vector 1017  BasicTopology.peer[23].bitTorrentApp.bitTorrentClient.contentManager_26  TotalBytesUploaded:vector  ETV
attr source  ContentManager_TotalBytesUploaded
attr title  "Total of Bytes Uploaded, vector"
attr unit  B
vector 1024  BasicTopology.peer[24].bitTorrentApp.bitTorrentClient.contentManager_26  TotalBytesDownloaded:vector  ETV
attr source  ContentManager_TotalBytesDownloaded
attr title  "Total of Bytes Downloaded, vector"
attr unit  B
vector 912  BasicTopology.peer[10].bitTorrentApp.bitTorrentClient.contentManager_26  TotalBytesDownloaded:vector  ETV
attr source  ContentManager_TotalBytesDownloaded
attr title  "Total of Bytes Downloaded, vector"
attr unit  B
vector 944  BasicTopology.peer[14].bitTorrentApp.bitTorrentClient.contentManager_26  TotalBytesDownloaded:vector  ETV
attr source  ContentManager_TotalBytesDownloaded
attr title  "Total of Bytes Downloaded, vector"
attr unit  B
vector 967  BasicTopology.peer[17].bitTorrentApp.bitTorrentClient.contentManager_26  PiecesDownloaded:vector  ETV
attr source  ContentManager_PieceDownloaded
attr title  "Pieces Downloaded, vector"
vector 969  BasicTopology.peer[17].bitTorrentApp.bitTorrentClient.contentManager_26  TotalBytesUploaded:vector  ETV
attr source  ContentManager_TotalBytesUploaded
attr title  "Total of Bytes Uploaded, vector"
attr unit  B
vector 849  BasicTopology.peer[2].bitTorrentApp.bitTorrentClient.contentManager_26  TotalBytesUploaded:vector  ETV
attr source  ContentManager_TotalBytesUploaded
attr title  "Total of Bytes Uploaded, vector"
attr unit  B
vector 872  BasicTopology.peer[5].bitTorrentApp.bitTorrentClient.contentManager_26  TotalBytesDownloaded:vector  ETV
attr source  ContentManager_TotalBytesDownloaded
attr title  "Total of Bytes Downloaded, vector"
attr unit  B
vector 952  BasicTopology.peer[15].bitTorrentApp.bitTorrentClient.contentManager_26  TotalBytesDownloaded:vector  ETV
attr source  ContentManager_TotalBytesDownloaded
attr title  "Total of Bytes Downloaded, vector"
attr unit  B
vector 911  BasicTopology.peer[10].bitTorrentApp.bitTorrentClient.contentManager_26  PiecesDownloaded:vector  ETV
attr source  ContentManager_PieceDownloaded
attr title  "Pieces Downloaded, vector"
vector 913  BasicTopology.peer[10].bitTorrentApp.bitTorrentClient.contentManager_26  TotalBytesUploaded:vector  ETV
attr source  ContentManager_TotalBytesUploaded
attr title  "Total of Bytes Uploaded, vector"
attr unit  B
vector 1023  BasicTopology.peer[24].bitTorrentApp.bitTorrentClient.contentManager_26  PiecesDownloaded:vector  ETV
attr source  ContentManager_PieceDownloaded
attr title  "Pieces Downloaded, vector"
vector 871  BasicTopology.peer[5].bitTorrentApp.bitTorrentClient.contentManager_26  PiecesDownloaded:vector  ETV
attr source  ContentManager_PieceDownloaded
attr title  "Pieces Downloaded, vector"
vector 984  BasicTopology.peer[19].bitTorrentApp.bitTorrentClient.contentManager_26  TotalBytesDownloaded:vector  ETV
attr source  ContentManager_TotalBytesDownloaded
attr title  "Total of Bytes Downloaded, vector"
attr unit  B
vector 887  BasicTopology.peer[7].bitTorrentApp.bitTorrentClient.contentManager_26  PiecesDownloaded:vector  ETV
attr source  ContentManager_PieceDownloaded
attr title  "Pieces Downloaded, vector"
vector 889  BasicTopology.peer[7].bitTorrentApp.bitTorrentClient.contentManager_26  TotalBytesUploaded:vector  ETV
attr source  ContentManager_TotalBytesUploaded
attr title  "Total of Bytes Uploaded, vector"
attr unit  B
vector 983  BasicTopology.peer[19].bitTorrentApp.bitTorrentClient.contentManager_26  PiecesDownloaded:vector  ETV
attr source  ContentManager_PieceDownloaded
attr title  "Pieces Downloaded, vector"
vector 960  BasicTopology.peer[16].bitTorrentApp.bitTorrentClient.contentManager_26  TotalBytesDownloaded:vector  ETV
attr source  ContentManager_TotalBytesDownloaded
attr title  "Total of Bytes Downloaded, vector"
attr unit  B
vector 855  BasicTopology.peer[3].bitTorrentApp.bitTorrentClient.contentManager_26  PiecesDownloaded:vector  ETV
attr source  ContentManager_PieceDownloaded
attr title  "Pieces Downloaded, vector"
vector 951  BasicTopology.peer[15].bitTorrentApp.bitTorrentClient.contentManager_26  PiecesDownloaded:vector  ETV
attr source  ContentManager_PieceDownloaded
attr title  "Pieces Downloaded, vector"
vector 839  BasicTopology.peer[1].bitTorrentApp.bitTorrentClient.contentManager_26  PiecesDownloaded:vector  ETV
attr source  ContentManager_PieceDownloaded
attr title  "Pieces Downloaded, vector"
vector 841  BasicTopology.peer[1].bitTorrentApp.bitTorrentClient.contentManager_26  TotalBytesUploaded:vector  ETV
attr source  ContentManager_TotalBytesUploaded
attr title  "Total of Bytes Uploaded, vector"
attr unit  B
vector 992  BasicTopology.peer[20].bitTorrentApp.bitTorrentClient.contentManager_26  TotalBytesDownloaded:vector  ETV
attr source  ContentManager_TotalBytesDownloaded
attr title  "Total of Bytes Downloaded, vector"
attr unit  B
vector 959  BasicTopology.peer[16].bitTorrentApp.bitTorrentClient.contentManager_26  PiecesDownloaded:vector  ETV
attr source  ContentManager_PieceDownloaded
attr title  "Pieces Downloaded, vector"
vector 976  BasicTopology.peer[18].bitTorrentApp.bitTorrentClient.contentManager_26  TotalBytesDownloaded:vector  ETV
attr source  ContentManager_TotalBytesDownloaded
attr title  "Total of Bytes Downloaded, vector"
attr unit  B
vector 857  BasicTopology.peer[3].bitTorrentApp.bitTorrentClient.contentManager_26  TotalBytesUploaded:vector  ETV
attr source  ContentManager_TotalBytesUploaded
attr title  "Total of Bytes Uploaded, vector"
attr unit  B
vector 1007  BasicTopology.peer[22].bitTorrentApp.bitTorrentClient.contentManager_26  PiecesDownloaded:vector  ETV
attr source  ContentManager_PieceDownloaded
attr title  "Pieces Downloaded, vector"
vector 1009  BasicTopology.peer[22].bitTorrentApp.bitTorrentClient.contentManager_26  TotalBytesUploaded:vector  ETV
attr source  ContentManager_TotalBytesUploaded
attr title  "Total of Bytes Uploaded, vector"
attr unit  B
vector 991  BasicTopology.peer[20].bitTorrentApp.bitTorrentClient.contentManager_26  PiecesDownloaded:vector  ETV
attr source  ContentManager_PieceDownloaded
attr title  "Pieces Downloaded, vector"
vector 943  BasicTopology.peer[14].bitTorrentApp.bitTorrentClient.contentManager_26  PiecesDownloaded:vector  ETV
attr source  ContentManager_PieceDownloaded
attr title  "Pieces Downloaded, vector"
vector 863  BasicTopology.peer[4].bitTorrentApp.bitTorrentClient.contentManager_26  PiecesDownloaded:vector  ETV
attr source  ContentManager_PieceDownloaded
attr title  "Pieces Downloaded, vector"
vector 993  BasicTopology.peer[20].bitTorrentApp.bitTorrentClient.contentManager_26  TotalBytesUploaded:vector  ETV
attr source  ContentManager_TotalBytesUploaded
attr title  "Total of Bytes Uploaded, vector"
attr unit  B
vector 985  BasicTopology.peer[19].bitTorrentApp.bitTorrentClient.contentManager_26  TotalBytesUploaded:vector  ETV
attr source  ContentManager_TotalBytesUploaded
attr title  "Total of Bytes Uploaded, vector"
attr unit  B
vector 975  BasicTopology.peer[18].bitTorrentApp.bitTorrentClient.contentManager_26  PiecesDownloaded:vector  ETV
attr source  ContentManager_PieceDownloaded
attr title  "Pieces Downloaded, vector"
vector 945  BasicTopology.peer[14].bitTorrentApp.bitTorrentClient.contentManager_26  TotalBytesUploaded:vector  ETV
attr source  ContentManager_TotalBytesUploaded
attr title  "Total of Bytes Uploaded, vector"
attr unit  B
vector 1025  BasicTopology.peer[24].bitTorrentApp.bitTorrentClient.contentManager_26  TotalBytesUploaded:vector  ETV
attr source  ContentManager_TotalBytesUploaded
attr title  "Total of Bytes Uploaded, vector"
attr unit  B
vector 961  BasicTopology.peer[16].bitTorrentApp.bitTorrentClient.contentManager_26  TotalBytesUploaded:vector  ETV
attr source  ContentManager_TotalBytesUploaded
attr title  "Total of Bytes Uploaded, vector"
attr unit  B
vector 865  BasicTopology.peer[4].bitTorrentApp.bitTorrentClient.contentManager_26  TotalBytesUploaded:vector  ETV
attr source  ContentManager_TotalBytesUploaded
attr title  "Total of Bytes Uploaded, vector"
attr unit  B
vector 977  BasicTopology.peer[18].bitTorrentApp.bitTorrentClient.contentManager_26  TotalBytesUploaded:vector  ETV
attr source  ContentManager_TotalBytesUploaded
attr title  "Total of Bytes Uploaded, vector"
attr unit  B
3	85	36001	36001
3	61042172	36107.512107387318	36107.512107387
5	86	36001	36001
5	61691542	36108.771060963053	36108.771060963
7	87	36001	36001
7	69441323	36125.808022963406	36125.808022963
9	88	36001	36001
9	75772435	36140.624552737992	36140.624552738
11	89	36001	36001
11	76684385	36142.80209841298	36142.802098413
13	90	36001	36001
13	74980430	36138.410468429466	36138.410468429
15	91	36001	36001
15	77825696	36146.869656098944	36146.869656099
17	92	36001	36001
17	70794711	36128.49737037422	36128.497370374
19	93	36001	36001
19	72911851	36132.961153899608	36132.9611539
21	94	36001	36001
21	79237990	36152.543271839673	36152.54327184
23	95	36001	36001
23	71400517	36129.754530668295	36129.754530668
25	96	36001	36001
25	76783479	36143.035867333225	36143.035867333
27	97	36001	36001
27	81595210	36181.62206797099	36181.622067971
29	98	36001	36001
29	75601249	36140.197984547772	36140.197984548
31	99	36001	36001
31	77569655	36145.21292232199	36145.212922322
33	100	36001	36001
33	75843122	36140.788608754359	36140.788608754
35	101	36001	36001
35	80650586	36169.471146781186	36169.471146781
37	102	36001	36001
37	79140053	36152.327028712546	36152.327028713
39	103	36001	36001
39	75275998	36139.400849663554	36139.400849664
41	104	36001	36001
41	79875443	36155.516902224251	36155.516902224
43	105	36001	36001
43	17533835	36033.306040074377	36033.306040074
45	106	36001	36001
45	43536763	36075.061672499868	36075.0616725
47	107	36001	36001
47	50520043	36086.883769096893	36086.883769097
49	108	36001	36001
49	79262664	36153.122955896192	36153.122955896
833	364238	36001.714853560795	32768
833	370435	36001.735278105596	65536
833	370717	36001.735988774297	98304
833	370912	36001.739201081495	131072
833	375694	36001.756141711037	163840
833	376140	36001.757378336988	196608
833	376251	36001.758024001295	229376
833	377944	36001.763353484395	262144
833	379576	36001.777647575421	294912
833	379578	36001.777972733907	327680
833	423533	36002.103575387853	360448
833	426997	36002.119636772757	393216
833	427157	36002.120387985547	425984
833	427740	36002.122510167308	458752
833	428553	36002.124995215051	491520
833	433230	36002.137850233893	524288
833	433503	36002.138485668484	557056
833	433776	36002.139143614511	589824
833	439980	36002.147340141434	622592
833	439997	36002.147433482579	655360
833	563723	36002.64136086223	688128
833	577745	36002.670692600978	720896
833	582927	36002.683870304175	753664
833	586347	36002.689740995872	786432
833	587030	36002.691331620107	819200
833	587434	36002.692346420684	851968
833	592220	36002.703465344585	884736
833	592581	36002.704330466993	917504
833	594273	36002.708125866927	950272
833	595511	36002.710383144366	983040
833	596521	36002.711972253337	1015808
833	600079	36002.722199007595	1048576
833	604876	36002.733104751571	1081344
833	609724	36002.743200870595	1114112
833	610352	36002.744770368571	1146880
833	614255	36002.754326452054	1179648
833	618414	36002.764437812402	1212416
833	626649	36002.78289635335	1245184
833	628542	36002.787365891131	1277952
833	633262	36002.799314301864	1310720
833	658269	36003.0300720603	1343488
833	687505	36003.121290415168	1376256
833	716095	36003.209489855774	1409024
833	741687	36003.28781270504	1441792
833	769317	36003.383981816869	1474560
833	793245	36003.463396267684	1507328
833	818073	36003.549367734147	1540096
833	834638	36003.602299562026	1572864
833	850686	36003.663449457472	1605632
833	866247	36003.723664741354	1638400
833	880953	36003.775881969965	1671168
833	1124161	36004.27421114504	1703936
833	1166526	36004.38201220496	1736704
833	1344860	36004.716245017868	1769472
833	1397581	36004.889734854609	1802240
833	1401643	36004.905402807143	1835008
833	1416658	36004.96130229948	1867776
833	1560793	36005.590280632715	1900544
833	1606736	36005.704617599594	1933312
833	1663107	36005.862081130608	1966080
833	1687372	36005.945767876822	1998848
833	1724097	36006.054740415347	2031616
833	1727893	36006.067002285889	2064384
833	1762718	36006.156458092791	2097152
833	1764656	36006.161586140071	2129920
833	1812806	36006.234260290782	2162688
833	1851288	36006.296501785898	2195456
833	1918101	36006.405128404516	2228224
833	1924157	36006.422680188126	2260992
833	2107485	36006.902373501915	2293760
833	2151145	36007.014201397486	2326528
833	2231293	36007.292276532556	2359296
833	2258941	36007.37919511607	2392064
833	2328623	36007.527730594474	2424832
833	2329911	36007.528866496311	2457600
833	2367324	36007.594358290748	2490368
833	2664812	36008.195862312058	2523136
833	2747204	36008.37615122282	2555904
833	2822449	36008.686029396779	2588672
833	2828638	36008.708021728881	2621440
833	2845544	36008.76132740802	2654208
833	2870968	36008.843747675683	2686976
833	2914464	36008.937549226883	2719744
833	2944974	36009.021264950028	2752512
833	2961204	36009.080122257796	2785280
833	2979521	36009.161902602059	2818048
833	3302271	36009.86122108754	2850816
833	3527074	36010.200911895161	2883584
833	3544442	36010.264144537289	2916352
833	3566995	36010.347321281942	2949120
833	4015962	36011.387614213071	2981888
833	4061992	36011.464140669848	3014656
833	4090309	36011.513401472149	3047424
833	4124901	36011.573220172654	3080192
833	4190316	36011.663384424737	3112960
833	4757569	36012.735659024309	3145728
833	4759298	36012.737927809796	3178496
833	4821848	36012.835466058869	3211264
833	5325302	36013.902039233748	3244032
833	5375896	36013.987097051469	3276800
833	5428707	36014.071719972195	3309568
833	5481502	36014.149488972587	3342336
833	5514814	36014.202913014012	3375104
833	5549891	36014.269722894623	3407872
833	5585743	36014.339273298324	3440640
833	6127910	36015.429844145114	3473408
833	6196403	36015.522004682051	3506176
833	6845947	36016.590962408768	3538944
833	6880370	36016.652676722748	3571712
833	7555459	36017.734536675314	3604480
833	7594605	36017.798681750747	3637248
833	7632615	36017.860922520046	3670016
833	7708434	36017.953294539956	3702784
833	7748051	36018.027617069937	3735552
833	8387699	36019.086118606692	3768320
833	8451888	36019.170588495955	3801088
833	8494234	36019.222051568671	3833856
833	8557336	36019.316690076104	3866624
833	8589890	36019.373242215057	3899392
833	8637196	36019.452556913242	3932160
833	8664149	36019.496051550831	3964928
833	8935660	36020.067136808833	3997696
833	9092376	36020.272350058555	4030464
833	9301435	36020.593125072033	4063232
833	9368072	36020.671112470644	4096000
833	9422655	36020.738142720569	4128768
833	9477652	36020.800881342814	4161536
833	9536679	36020.914211906417	4194304
833	9543784	36020.928673690459	4227072
833	9595302	36021.026107230776	4259840
833	9650256	36021.116807035543	4292608
833	9767723	36021.265162856073	4325376
833	10154621	36021.78515956634	4358144
833	10171013	36021.807309323751	4390912
833	10173816	36021.811112200914	4423680
833	10183137	36021.826687454297	4456448
833	10183927	36021.828056449916	4489216
833	10188561	36021.836108797675	4521984
833	10189281	36021.83680403415	4554752
833	10189406	36021.836949863894	4587520
833	10202311	36021.856070819728	4620288
833	10214976	36021.876276480729	4653056
833	10552852	36022.395323428518	4685824
833	10631827	36022.495040418804	4718592
833	11312453	36023.576556352898	4751360
833	12095323	36024.646574140001	4784128
833	12133667	36024.720106114937	4816896
833	12183335	36024.796575154343	4849664
833	12897279	36025.88552103449	4882432
833	12972877	36025.995417756512	4915200
833	13019333	36026.062505820126	4947968
833	15037907	36029.362611475608	4980736
833	15057859	36029.386771814236	5013504
833	15059301	36029.389020552062	5046272
833	15059321	36029.389044647408	5079040
833	15087385	36029.43298525985	5111808
833	15159578	36029.527713686017	5144576
833	16592335	36031.729676936379	5177344
833	16592575	36031.730349021435	5210112
833	16592685	36031.73048208429	5242880
833	16593282	36031.731428578936	5275648
833	16597118	36031.739458087393	5308416
833	16615617	36031.769944848562	5341184
833	16615833	36031.770290188421	5373952
833	16617668	36031.772504919082	5406720
833	16628866	36031.788428752083	5439488
833	16646705	36031.817836797637	5472256
833	17661660	36033.541389920697	5505024
833	17791516	36033.760943274216	5537792
833	18446705	36035.006929983906	5570560
833	20920797	36039.208997701989	5603328
833	21062121	36039.43289898848	5636096
833	22847915	36042.63728254094	5668864
833	22907466	36042.738899572054	5701632
833	23541564	36043.922659846163	5734400
833	23667783	36044.129085525526	5767168
833	23758341	36044.268749394004	5799936
833	23862777	36044.430008890538	5832704
833	23980815	36044.633509551957	5865472
833	24088265	36044.811937654011	5898240
833	24823163	36045.970352001305	5931008
833	25562539	36047.133052568899	5963776
833	25667596	36047.286651975448	5996544
833	26375945	36048.429427988048	6029312
833	27066103	36049.633140155791	6062080
833	27154100	36049.756992067069	6094848
833	27344199	36050.022714825561	6127616
833	27917768	36050.920777291197	6160384
833	28201303	36051.397981466113	6193152
833	29480242	36053.531970734566	6225920
833	29483596	36053.536156696227	6258688
833	29493740	36053.551210921063	6291456
833	29493770	36053.551335714791	6324224
833	29503441	36053.564587966646	6356992
833	29521880	36053.591883137728	6389760
833	29534802	36053.610790030331	6422528
833	29535430	36053.612276245261	6455296
833	29550965	36053.637520566432	6488064
833	29552377	36053.639430709494	6520832
833	34745683	36061.718959592159	6553600
833	34745917	36061.719288895696	6586368
833	34746712	36061.721901986165	6619136