version 2
run Test-14-20200526-12:15:22-5284
attr configname Test
attr datetime 20200526-12:15:22
attr experiment "\"Simulation Test\""
attr inifile BasicConfig.ini
attr iterationvars ""
attr iterationvars2 $repetition=14
attr measurement "\"Peers: $peers, Rate: $rate\""
attr network BasicTopology
attr processid 5284
attr repetition 14
attr replication #14
attr resultdir results
attr runnumber 14
attr seedset 14

vector 3  BasicTopology.peer[1].bitTorrentApp.bitTorrentClient  DownloadComplete_Test:vector  ETV
attr source  BitTorrentClient_DownloadComplete_Test
attr title  "Descargas completas (prueba), vector"
vector 5  BasicTopology.peer[2].bitTorrentApp.bitTorrentClient  DownloadComplete_Test:vector  ETV
attr source  BitTorrentClient_DownloadComplete_Test
attr title  "Descargas completas (prueba), vector"
vector 7  BasicTopology.peer[3].bitTorrentApp.bitTorrentClient  DownloadComplete_Test:vector  ETV
attr source  BitTorrentClient_DownloadComplete_Test
attr title  "Descargas completas (prueba), vector"
vector 9  BasicTopology.peer[4].bitTorrentApp.bitTorrentClient  DownloadComplete_Test:vector  ETV
attr source  BitTorrentClient_DownloadComplete_Test
attr title  "Descargas completas (prueba), vector"
vector 11  BasicTopology.peer[5].bitTorrentApp.bitTorrentClient  DownloadComplete_Test:vector  ETV
attr source  BitTorrentClient_DownloadComplete_Test
attr title  "Descargas completas (prueba), vector"
vector 13  BasicTopology.peer[6].bitTorrentApp.bitTorrentClient  DownloadComplete_Test:vector  ETV
attr source  BitTorrentClient_DownloadComplete_Test
attr title  "Descargas completas (prueba), vector"
vector 15  BasicTopology.peer[7].bitTorrentApp.bitTorrentClient  DownloadComplete_Test:vector  ETV
attr source  BitTorrentClient_DownloadComplete_Test
attr title  "Descargas completas (prueba), vector"
vector 17  BasicTopology.peer[8].bitTorrentApp.bitTorrentClient  DownloadComplete_Test:vector  ETV
attr source  BitTorrentClient_DownloadComplete_Test
attr title  "Descargas completas (prueba), vector"
vector 19  BasicTopology.peer[9].bitTorrentApp.bitTorrentClient  DownloadComplete_Test:vector  ETV
attr source  BitTorrentClient_DownloadComplete_Test
attr title  "Descargas completas (prueba), vector"
vector 21  BasicTopology.peer[10].bitTorrentApp.bitTorrentClient  DownloadComplete_Test:vector  ETV
attr source  BitTorrentClient_DownloadComplete_Test
attr title  "Descargas completas (prueba), vector"
vector 23  BasicTopology.peer[11].bitTorrentApp.bitTorrentClient  DownloadComplete_Test:vector  ETV
attr source  BitTorrentClient_DownloadComplete_Test
attr title  "Descargas completas (prueba), vector"
vector 25  BasicTopology.peer[12].bitTorrentApp.bitTorrentClient  DownloadComplete_Test:vector  ETV
attr source  BitTorrentClient_DownloadComplete_Test
attr title  "Descargas completas (prueba), vector"
vector 27  BasicTopology.peer[13].bitTorrentApp.bitTorrentClient  DownloadComplete_Test:vector  ETV
attr source  BitTorrentClient_DownloadComplete_Test
attr title  "Descargas completas (prueba), vector"
vector 29  BasicTopology.peer[14].bitTorrentApp.bitTorrentClient  DownloadComplete_Test:vector  ETV
attr source  BitTorrentClient_DownloadComplete_Test
attr title  "Descargas completas (prueba), vector"
vector 31  BasicTopology.peer[15].bitTorrentApp.bitTorrentClient  DownloadComplete_Test:vector  ETV
attr source  BitTorrentClient_DownloadComplete_Test
attr title  "Descargas completas (prueba), vector"
vector 33  BasicTopology.peer[16].bitTorrentApp.bitTorrentClient  DownloadComplete_Test:vector  ETV
attr source  BitTorrentClient_DownloadComplete_Test
attr title  "Descargas completas (prueba), vector"
vector 35  BasicTopology.peer[17].bitTorrentApp.bitTorrentClient  DownloadComplete_Test:vector  ETV
attr source  BitTorrentClient_DownloadComplete_Test
attr title  "Descargas completas (prueba), vector"
vector 37  BasicTopology.peer[18].bitTorrentApp.bitTorrentClient  DownloadComplete_Test:vector  ETV
attr source  BitTorrentClient_DownloadComplete_Test
attr title  "Descargas completas (prueba), vector"
vector 39  BasicTopology.peer[19].bitTorrentApp.bitTorrentClient  DownloadComplete_Test:vector  ETV
attr source  BitTorrentClient_DownloadComplete_Test
attr title  "Descargas completas (prueba), vector"
vector 41  BasicTopology.peer[20].bitTorrentApp.bitTorrentClient  DownloadComplete_Test:vector  ETV
attr source  BitTorrentClient_DownloadComplete_Test
attr title  "Descargas completas (prueba), vector"
vector 43  BasicTopology.peer[21].bitTorrentApp.bitTorrentClient  DownloadComplete_Test:vector  ETV
attr source  BitTorrentClient_DownloadComplete_Test
attr title  "Descargas completas (prueba), vector"
vector 45  BasicTopology.peer[22].bitTorrentApp.bitTorrentClient  DownloadComplete_Test:vector  ETV
attr source  BitTorrentClient_DownloadComplete_Test
attr title  "Descargas completas (prueba), vector"
vector 47  BasicTopology.peer[23].bitTorrentApp.bitTorrentClient  DownloadComplete_Test:vector  ETV
attr source  BitTorrentClient_DownloadComplete_Test
attr title  "Descargas completas (prueba), vector"
vector 49  BasicTopology.peer[24].bitTorrentApp.bitTorrentClient  DownloadComplete_Test:vector  ETV
attr source  BitTorrentClient_DownloadComplete_Test
attr title  "Descargas completas (prueba), vector"
vector 833  BasicTopology.peer[0].bitTorrentApp.bitTorrentClient.contentManager_26  TotalBytesUploaded:vector  ETV
attr source  ContentManager_TotalBytesUploaded
attr title  "Total of Bytes Uploaded, vector"
attr unit  B
vector 840  BasicTopology.peer[1].bitTorrentApp.bitTorrentClient.contentManager_26  TotalBytesDownloaded:vector  ETV
attr source  ContentManager_TotalBytesDownloaded
attr title  "Total of Bytes Downloaded, vector"
attr unit  B
vector 1000  BasicTopology.peer[21].bitTorrentApp.bitTorrentClient.contentManager_26  TotalBytesDownloaded:vector  ETV
attr source  ContentManager_TotalBytesDownloaded
attr title  "Total of Bytes Downloaded, vector"
attr unit  B
vector 872  BasicTopology.peer[5].bitTorrentApp.bitTorrentClient.contentManager_26  TotalBytesDownloaded:vector  ETV
attr source  ContentManager_TotalBytesDownloaded
attr title  "Total of Bytes Downloaded, vector"
attr unit  B
vector 880  BasicTopology.peer[6].bitTorrentApp.bitTorrentClient.contentManager_26  TotalBytesDownloaded:vector  ETV
attr source  ContentManager_TotalBytesDownloaded
attr title  "Total of Bytes Downloaded, vector"
attr unit  B
vector 999  BasicTopology.peer[21].bitTorrentApp.bitTorrentClient.contentManager_26  PiecesDownloaded:vector  ETV
attr source  ContentManager_PieceDownloaded
attr title  "Pieces Downloaded, vector"
vector 1001  BasicTopology.peer[21].bitTorrentApp.bitTorrentClient.contentManager_26  TotalBytesUploaded:vector  ETV
attr source  ContentManager_TotalBytesUploaded
attr title  "Total of Bytes Uploaded, vector"
attr unit  B
vector 871  BasicTopology.peer[5].bitTorrentApp.bitTorrentClient.contentManager_26  PiecesDownloaded:vector  ETV
attr source  ContentManager_PieceDownloaded
attr title  "Pieces Downloaded, vector"
vector 873  BasicTopology.peer[5].bitTorrentApp.bitTorrentClient.contentManager_26  TotalBytesUploaded:vector  ETV
attr source  ContentManager_TotalBytesUploaded
attr title  "Total of Bytes Uploaded, vector"
attr unit  B
vector 920  BasicTopology.peer[11].bitTorrentApp.bitTorrentClient.contentManager_26  TotalBytesDownloaded:vector  ETV
attr source  ContentManager_TotalBytesDownloaded
attr title  "Total of Bytes Downloaded, vector"
attr unit  B
vector 839  BasicTopology.peer[1].bitTorrentApp.bitTorrentClient.contentManager_26  PiecesDownloaded:vector  ETV
attr source  ContentManager_PieceDownloaded
attr title  "Pieces Downloaded, vector"
vector 841  BasicTopology.peer[1].bitTorrentApp.bitTorrentClient.contentManager_26  TotalBytesUploaded:vector  ETV
attr source  ContentManager_TotalBytesUploaded
attr title  "Total of Bytes Uploaded, vector"
attr unit  B
vector 960  BasicTopology.peer[16].bitTorrentApp.bitTorrentClient.contentManager_26  TotalBytesDownloaded:vector  ETV
attr source  ContentManager_TotalBytesDownloaded
attr title  "Total of Bytes Downloaded, vector"
attr unit  B
vector 848  BasicTopology.peer[2].bitTorrentApp.bitTorrentClient.contentManager_26  TotalBytesDownloaded:vector  ETV
attr source  ContentManager_TotalBytesDownloaded
attr title  "Total of Bytes Downloaded, vector"
attr unit  B
vector 888  BasicTopology.peer[7].bitTorrentApp.bitTorrentClient.contentManager_26  TotalBytesDownloaded:vector  ETV
attr source  ContentManager_TotalBytesDownloaded
attr title  "Total of Bytes Downloaded, vector"
attr unit  B
vector 936  BasicTopology.peer[13].bitTorrentApp.bitTorrentClient.contentManager_26  TotalBytesDownloaded:vector  ETV
attr source  ContentManager_TotalBytesDownloaded
attr title  "Total of Bytes Downloaded, vector"
attr unit  B
vector 864  BasicTopology.peer[4].bitTorrentApp.bitTorrentClient.contentManager_26  TotalBytesDownloaded:vector  ETV
attr source  ContentManager_TotalBytesDownloaded
attr title  "Total of Bytes Downloaded, vector"
attr unit  B
vector 992  BasicTopology.peer[20].bitTorrentApp.bitTorrentClient.contentManager_26  TotalBytesDownloaded:vector  ETV
attr source  ContentManager_TotalBytesDownloaded
attr title  "Total of Bytes Downloaded, vector"
attr unit  B
vector 912  BasicTopology.peer[10].bitTorrentApp.bitTorrentClient.contentManager_26  TotalBytesDownloaded:vector  ETV
attr source  ContentManager_TotalBytesDownloaded
attr title  "Total of Bytes Downloaded, vector"
attr unit  B
vector 887  BasicTopology.peer[7].bitTorrentApp.bitTorrentClient.contentManager_26  PiecesDownloaded:vector  ETV
attr source  ContentManager_PieceDownloaded
attr title  "Pieces Downloaded, vector"
vector 889  BasicTopology.peer[7].bitTorrentApp.bitTorrentClient.contentManager_26  TotalBytesUploaded:vector  ETV
attr source  ContentManager_TotalBytesUploaded
attr title  "Total of Bytes Uploaded, vector"
attr unit  B
vector 863  BasicTopology.peer[4].bitTorrentApp.bitTorrentClient.contentManager_26  PiecesDownloaded:vector  ETV
attr source  ContentManager_PieceDownloaded
attr title  "Pieces Downloaded, vector"
vector 865  BasicTopology.peer[4].bitTorrentApp.bitTorrentClient.contentManager_26  TotalBytesUploaded:vector  ETV
attr source  ContentManager_TotalBytesUploaded
attr title  "Total of Bytes Uploaded, vector"
attr unit  B
vector 984  BasicTopology.peer[19].bitTorrentApp.bitTorrentClient.contentManager_26  TotalBytesDownloaded:vector  ETV
attr source  ContentManager_TotalBytesDownloaded
attr title  "Total of Bytes Downloaded, vector"
attr unit  B
vector 911  BasicTopology.peer[10].bitTorrentApp.bitTorrentClient.contentManager_26  PiecesDownloaded:vector  ETV
attr source  ContentManager_PieceDownloaded
attr title  "Pieces Downloaded, vector"
vector 913  BasicTopology.peer[10].bitTorrentApp.bitTorrentClient.contentManager_26  TotalBytesUploaded:vector  ETV
attr source  ContentManager_TotalBytesUploaded
attr title  "Total of Bytes Uploaded, vector"
attr unit  B
vector 856  BasicTopology.peer[3].bitTorrentApp.bitTorrentClient.contentManager_26  TotalBytesDownloaded:vector  ETV
attr source  ContentManager_TotalBytesDownloaded
attr title  "Total of Bytes Downloaded, vector"
attr unit  B
vector 904  BasicTopology.peer[9].bitTorrentApp.bitTorrentClient.contentManager_26  TotalBytesDownloaded:vector  ETV
attr source  ContentManager_TotalBytesDownloaded
attr title  "Total of Bytes Downloaded, vector"
attr unit  B
vector 991  BasicTopology.peer[20].bitTorrentApp.bitTorrentClient.contentManager_26  PiecesDownloaded:vector  ETV
attr source  ContentManager_PieceDownloaded
attr title  "Pieces Downloaded, vector"
vector 993  BasicTopology.peer[20].bitTorrentApp.bitTorrentClient.contentManager_26  TotalBytesUploaded:vector  ETV
attr source  ContentManager_TotalBytesUploaded
attr title  "Total of Bytes Uploaded, vector"
attr unit  B
vector 935  BasicTopology.peer[13].bitTorrentApp.bitTorrentClient.contentManager_26  PiecesDownloaded:vector  ETV
attr source  ContentManager_PieceDownloaded
attr title  "Pieces Downloaded, vector"
vector 1024  BasicTopology.peer[24].bitTorrentApp.bitTorrentClient.contentManager_26  TotalBytesDownloaded:vector  ETV
attr source  ContentManager_TotalBytesDownloaded
attr title  "Total of Bytes Downloaded, vector"
attr unit  B
vector 855  BasicTopology.peer[3].bitTorrentApp.bitTorrentClient.contentManager_26  PiecesDownloaded:vector  ETV
attr source  ContentManager_PieceDownloaded
attr title  "Pieces Downloaded, vector"
vector 896  BasicTopology.peer[8].bitTorrentApp.bitTorrentClient.contentManager_26  TotalBytesDownloaded:vector  ETV
attr source  ContentManager_TotalBytesDownloaded
attr title  "Total of Bytes Downloaded, vector"
attr unit  B
vector 847  BasicTopology.peer[2].bitTorrentApp.bitTorrentClient.contentManager_26  PiecesDownloaded:vector  ETV
attr source  ContentManager_PieceDownloaded
attr title  "Pieces Downloaded, vector"
vector 952  BasicTopology.peer[15].bitTorrentApp.bitTorrentClient.contentManager_26  TotalBytesDownloaded:vector  ETV
attr source  ContentManager_TotalBytesDownloaded
attr title  "Total of Bytes Downloaded, vector"
attr unit  B
vector 959  BasicTopology.peer[16].bitTorrentApp.bitTorrentClient.contentManager_26  PiecesDownloaded:vector  ETV
attr source  ContentManager_PieceDownloaded
attr title  "Pieces Downloaded, vector"
vector 849  BasicTopology.peer[2].bitTorrentApp.bitTorrentClient.contentManager_26  TotalBytesUploaded:vector  ETV
attr source  ContentManager_TotalBytesUploaded
attr title  "Total of Bytes Uploaded, vector"
attr unit  B
vector 903  BasicTopology.peer[9].bitTorrentApp.bitTorrentClient.contentManager_26  PiecesDownloaded:vector  ETV
attr source  ContentManager_PieceDownloaded
attr title  "Pieces Downloaded, vector"
vector 905  BasicTopology.peer[9].bitTorrentApp.bitTorrentClient.contentManager_26  TotalBytesUploaded:vector  ETV
attr source  ContentManager_TotalBytesUploaded
attr title  "Total of Bytes Uploaded, vector"
attr unit  B
vector 968  BasicTopology.peer[17].bitTorrentApp.bitTorrentClient.contentManager_26  TotalBytesDownloaded:vector  ETV
attr source  ContentManager_TotalBytesDownloaded
attr title  "Total of Bytes Downloaded, vector"
attr unit  B
vector 1016  BasicTopology.peer[23].bitTorrentApp.bitTorrentClient.contentManager_26  TotalBytesDownloaded:vector  ETV
attr source  ContentManager_TotalBytesDownloaded
attr title  "Total of Bytes Downloaded, vector"
attr unit  B
vector 1023  BasicTopology.peer[24].bitTorrentApp.bitTorrentClient.contentManager_26  PiecesDownloaded:vector  ETV
attr source  ContentManager_PieceDownloaded
attr title  "Pieces Downloaded, vector"
vector 944  BasicTopology.peer[14].bitTorrentApp.bitTorrentClient.contentManager_26  TotalBytesDownloaded:vector  ETV
attr source  ContentManager_TotalBytesDownloaded
attr title  "Total of Bytes Downloaded, vector"
attr unit  B
vector 1025  BasicTopology.peer[24].bitTorrentApp.bitTorrentClient.contentManager_26  TotalBytesUploaded:vector  ETV
attr source  ContentManager_TotalBytesUploaded
attr title  "Total of Bytes Uploaded, vector"
attr unit  B
vector 967  BasicTopology.peer[17].bitTorrentApp.bitTorrentClient.contentManager_26  PiecesDownloaded:vector  ETV
attr source  ContentManager_PieceDownloaded
attr title  "Pieces Downloaded, vector"
vector 976  BasicTopology.peer[18].bitTorrentApp.bitTorrentClient.contentManager_26  TotalBytesDownloaded:vector  ETV
attr source  ContentManager_TotalBytesDownloaded
attr title  "Total of Bytes Downloaded, vector"
attr unit  B
vector 857  BasicTopology.peer[3].bitTorrentApp.bitTorrentClient.contentManager_26  TotalBytesUploaded:vector  ETV
attr source  ContentManager_TotalBytesUploaded
attr title  "Total of Bytes Uploaded, vector"
attr unit  B
vector 919  BasicTopology.peer[11].bitTorrentApp.bitTorrentClient.contentManager_26  PiecesDownloaded:vector  ETV
attr source  ContentManager_PieceDownloaded
attr title  "Pieces Downloaded, vector"
vector 951  BasicTopology.peer[15].bitTorrentApp.bitTorrentClient.contentManager_26  PiecesDownloaded:vector  ETV
attr source  ContentManager_PieceDownloaded
attr title  "Pieces Downloaded, vector"
vector 1008  BasicTopology.peer[22].bitTorrentApp.bitTorrentClient.contentManager_26  TotalBytesDownloaded:vector  ETV
attr source  ContentManager_TotalBytesDownloaded
attr title  "Total of Bytes Downloaded, vector"
attr unit  B
vector 879  BasicTopology.peer[6].bitTorrentApp.bitTorrentClient.contentManager_26  PiecesDownloaded:vector  ETV
attr source  ContentManager_PieceDownloaded
attr title  "Pieces Downloaded, vector"
vector 1007  BasicTopology.peer[22].bitTorrentApp.bitTorrentClient.contentManager_26  PiecesDownloaded:vector  ETV
attr source  ContentManager_PieceDownloaded
attr title  "Pieces Downloaded, vector"
vector 983  BasicTopology.peer[19].bitTorrentApp.bitTorrentClient.contentManager_26  PiecesDownloaded:vector  ETV
attr source  ContentManager_PieceDownloaded
attr title  "Pieces Downloaded, vector"
vector 895  BasicTopology.peer[8].bitTorrentApp.bitTorrentClient.contentManager_26  PiecesDownloaded:vector  ETV
attr source  ContentManager_PieceDownloaded
attr title  "Pieces Downloaded, vector"
vector 1009  BasicTopology.peer[22].bitTorrentApp.bitTorrentClient.contentManager_26  TotalBytesUploaded:vector  ETV
attr source  ContentManager_TotalBytesUploaded
attr title  "Total of Bytes Uploaded, vector"
attr unit  B
vector 1015  BasicTopology.peer[23].bitTorrentApp.bitTorrentClient.contentManager_26  PiecesDownloaded:vector  ETV
attr source  ContentManager_PieceDownloaded
attr title  "Pieces Downloaded, vector"
vector 975  BasicTopology.peer[18].bitTorrentApp.bitTorrentClient.contentManager_26  PiecesDownloaded:vector  ETV
attr source  ContentManager_PieceDownloaded
attr title  "Pieces Downloaded, vector"
vector 921  BasicTopology.peer[11].bitTorrentApp.bitTorrentClient.contentManager_26  TotalBytesUploaded:vector  ETV
attr source  ContentManager_TotalBytesUploaded
attr title  "Total of Bytes Uploaded, vector"
attr unit  B
vector 1017  BasicTopology.peer[23].bitTorrentApp.bitTorrentClient.contentManager_26  TotalBytesUploaded:vector  ETV
attr source  ContentManager_TotalBytesUploaded
attr title  "Total of Bytes Uploaded, vector"
attr unit  B
vector 943  BasicTopology.peer[14].bitTorrentApp.bitTorrentClient.contentManager_26  PiecesDownloaded:vector  ETV
attr source  ContentManager_PieceDownloaded
attr title  "Pieces Downloaded, vector"
vector 945  BasicTopology.peer[14].bitTorrentApp.bitTorrentClient.contentManager_26  TotalBytesUploaded:vector  ETV
attr source  ContentManager_TotalBytesUploaded
attr title  "Total of Bytes Uploaded, vector"
attr unit  B
vector 928  BasicTopology.peer[12].bitTorrentApp.bitTorrentClient.contentManager_26  TotalBytesDownloaded:vector  ETV
attr source  ContentManager_TotalBytesDownloaded
attr title  "Total of Bytes Downloaded, vector"
attr unit  B
vector 961  BasicTopology.peer[16].bitTorrentApp.bitTorrentClient.contentManager_26  TotalBytesUploaded:vector  ETV
attr source  ContentManager_TotalBytesUploaded
attr title  "Total of Bytes Uploaded, vector"
attr unit  B
vector 881  BasicTopology.peer[6].bitTorrentApp.bitTorrentClient.contentManager_26  TotalBytesUploaded:vector  ETV
attr source  ContentManager_TotalBytesUploaded
attr title  "Total of Bytes Uploaded, vector"
attr unit  B
vector 927  BasicTopology.peer[12].bitTorrentApp.bitTorrentClient.contentManager_26  PiecesDownloaded:vector  ETV
attr source  ContentManager_PieceDownloaded
attr title  "Pieces Downloaded, vector"
vector 897  BasicTopology.peer[8].bitTorrentApp.bitTorrentClient.contentManager_26  TotalBytesUploaded:vector  ETV
attr source  ContentManager_TotalBytesUploaded
attr title  "Total of Bytes Uploaded, vector"
attr unit  B
vector 985  BasicTopology.peer[19].bitTorrentApp.bitTorrentClient.contentManager_26  TotalBytesUploaded:vector  ETV
attr source  ContentManager_TotalBytesUploaded
attr title  "Total of Bytes Uploaded, vector"
attr unit  B
vector 937  BasicTopology.peer[13].bitTorrentApp.bitTorrentClient.contentManager_26  TotalBytesUploaded:vector  ETV
attr source  ContentManager_TotalBytesUploaded
attr title  "Total of Bytes Uploaded, vector"
attr unit  B
vector 953  BasicTopology.peer[15].bitTorrentApp.bitTorrentClient.contentManager_26  TotalBytesUploaded:vector  ETV
attr source  ContentManager_TotalBytesUploaded
attr title  "Total of Bytes Uploaded, vector"
attr unit  B
vector 977  BasicTopology.peer[18].bitTorrentApp.bitTorrentClient.contentManager_26  TotalBytesUploaded:vector  ETV
attr source  ContentManager_TotalBytesUploaded
attr title  "Total of Bytes Uploaded, vector"
attr unit  B
3	85	36001	36001
3	19507930	36037.186129692877	36037.186129693
5	86	36001	36001
5	45350166	36079.325719776011	36079.325719776
7	87	36001	36001
7	37757295	36066.536655639894	36066.53665564
9	88	36001	36001
9	61301632	36110.859539917242	36110.859539917
11	89	36001	36001
11	78242032	36302.990014401457	36302.990014401
13	90	36001	36001
13	74962429	36145.568522021928	36145.568522022
15	91	36001	36001
15	56976310	36101.790785491597	36101.790785492
17	92	36001	36001
17	57712263	36103.372285462108	36103.372285462
19	93	36001	36001
19	76959410	36151.502734741172	36151.502734741
21	94	36001	36001
21	67804902	36127.612086305219	36127.612086305
23	95	36001	36001
23	73445940	36141.731523254004	36141.731523254
25	96	36001	36001
25	73490412	36142.155560245714	36142.155560246
27	97	36001	36001
27	59682368	36107.495510355722	36107.495510356
29	98	36001	36001
29	64765464	36120.213764427244	36120.213764427
31	99	36001	36001
31	72987990	36140.362026806955	36140.362026807
33	100	36001	36001
33	69008301	36130.233918147653	36130.233918148
35	101	36001	36001
35	75304158	36146.190367727674	36146.190367728
37	102	36001	36001
37	75872701	36147.281957131543	36147.281957132
39	103	36001	36001
39	64290248	36119.054804290584	36119.054804291
41	104	36001	36001
41	47851529	36083.587703538668	36083.587703539
43	105	36001	36001
43	58592779	36105.306879351668	36105.306879352
45	106	36001	36001
45	55396376	36098.65131757012	36098.65131757
47	107	36001	36001
47	52543494	36092.755524173964	36092.755524174
49	108	36001	36001
49	49859563	36087.684086420456	36087.68408642
833	96165	36001.067380481112	32768
833	102994	36001.074409174652	65536
833	103797	36001.075439109335	98304
833	103911	36001.075629736879	131072
833	105586	36001.078433123464	163840
833	115600	36001.091326591469	196608
833	119931	36001.108605667983	229376
833	119933	36001.108962229654	262144
833	119936	36001.110732938647	294912
833	119946	36001.115123076036	327680
833	176923	36001.202366193138	360448
833	178142	36001.206018620817	393216
833	178252	36001.206463383465	425984
833	180211	36001.213348322172	458752
833	180622	36001.214472683723	491520
833	180667	36001.214563733734	524288
833	185183	36001.227092579522	557056
833	187827	36001.24849370731	589824
833	187829	36001.249370514873	622592
833	187856	36001.26963364087	655360
833	289316	36001.739072592888	688128
833	290584	36001.743023744236	720896
833	290758	36001.744390170123	753664
833	293426	36001.75016499102	786432
833	301206	36001.769410050693	819200
833	310901	36001.792710084453	851968
833	311095	36001.793260039064	884736
833	317176	36001.808653959128	917504
833	317206	36001.808771873919	950272
833	317886	36001.8103058649	983040
833	412268	36002.473119662276	1015808
833	438651	36002.511308976189	1048576
833	503039	36002.599731603731	1081344
833	503073	36002.599770030096	1114112
833	503734	36002.601212534598	1146880
833	513512	36002.622824490031	1179648
833	523003	36002.641828450419	1212416
833	533356	36002.655644437792	1245184
833	539189	36002.666146030547	1277952
833	539305	36002.666288009949	1310720
833	539764	36002.666838928251	1343488
833	540319	36002.668091796395	1376256
833	660477	36003.093855576287	1409024
833	719070	36003.225614916822	1441792
833	768604	36003.582384066811	1474560
833	773058	36003.595450747196	1507328
833	785624	36003.635258601756	1540096
833	836427	36003.841846734858	1572864
833	894695	36003.972093876116	1605632
833	1091906	36004.366503847909	1638400
833	1133890	36004.469884682681	1671168
833	1140790	36004.486931061071	1703936
833	1141132	36004.487501041109	1736704
833	1141533	36004.488211130052	1769472
833	1141902	36004.488650306097	1802240
833	1262062	36004.687507039652	1835008
833	1330856	36004.836030332438	1867776
833	1332817	36004.842260249922	1900544
833	1389444	36004.971240382493	1933312
833	1411262	36005.012637607601	1966080
833	1456240	36005.083987848433	1998848
833	1492264	36005.16983974074	2031616
833	1531478	36005.288842739797	2064384
833	1598550	36005.688315934478	2097152
833	1608805	36005.71061547553	2129920
833	1713281	36006.184314814737	2162688
833	1754089	36006.37687480083	2195456
833	1776044	36006.450062887575	2228224
833	1789790	36006.502127801602	2260992
833	1877343	36006.762892855262	2293760
833	1900971	36006.824365701155	2326528
833	2291844	36007.832009759849	2359296
833	2327199	36007.884502383157	2392064
833	2450439	36008.25739733835	2424832
833	2780060	36008.9081800602	2457600
833	2786829	36008.92944359001	2490368
833	2791436	36008.943528820727	2523136
833	2816009	36008.981586316639	2555904
833	2829247	36009.002262820451	2588672
833	2858062	36009.044623528579	2621440
833	2864662	36009.055222167124	2654208
833	2897066	36009.104449906755	2686976
833	2902540	36009.113128343528	2719744
833	2920041	36009.144650349914	2752512
833	2950542	36009.264441026973	2785280
833	3011673	36009.398959526609	2818048
833	3465051	36010.16558891674	2850816
833	3473615	36010.17853376901	2883584
833	3506742	36010.229110497524	2916352
833	3618251	36010.57642948103	2949120
833	3754334	36010.824804417034	2981888
833	4006898	36011.256640428121	3014656
833	4007666	36011.257530855492	3047424
833	4466392	36012.054614622594	3080192
833	4607175	36012.30458362206	3112960
833	4610171	36012.308046728246	3145728
833	4826752	36012.750185807819	3178496
833	4844490	36012.779037234974	3211264
833	5387493	36013.810627712017	3244032
833	6353067	36015.335866519318	3276800
833	6377636	36015.362001615309	3309568
833	7009060	36016.422269298879	3342336
833	7040519	36016.467793657289	3375104
833	7277297	36016.937208221289	3407872
833	7358121	36017.061313242981	3440640
833	7679737	36017.536582248318	3473408
833	8295187	36018.566094102093	3506176
833	8298848	36018.576104027373	3538944
833	8306146	36018.600651270618	3571712
833	8849625	36019.635327768562	3604480
833	8862945	36019.657734705356	3637248
833	9202151	36020.246134213681	3670016
833	9309857	36020.40331327414	3702784
833	9381632	36020.509590174811	3735552
833	9529524	36020.736100000167	3768320
833	9550343	36020.766311511457	3801088
833	9666073	36021.055738856776	3833856
833	9667360	36021.057439787695	3866624
833	9670473	36021.062833675369	3899392
833	9671003	36021.063525826596	3932160
833	9671903	36021.064790448066	3964928
833	9674888	36021.068699662877	3997696
833	9675610	36021.070054502902	4030464
833	9675907	36021.070747573853	4063232
833	9676202	36021.071084066289	4096000
833	9676982	36021.072427851837	4128768
833	10131194	36021.822700877042	4161536
833	10155951	36021.856076520303	4194304
833	10451575	36022.340833242599	4227072
833	10829308	36022.880513614057	4259840
833	10866678	36022.933989475809	4292608
833	10911086	36022.99649267554	4325376
833	11122164	36023.440725969036	4358144
833	11155289	36023.50253394574	4390912
833	11215384	36023.587619770648	4423680
833	11506834	36024.056392383269	4456448
833	11532965	36024.09162576567	4489216
833	11869962	36024.663619192373	4521984
833	11937026	36024.758421170149	4554752
833	12215776	36025.143936236235	4587520
833	12223241	36025.155115943077	4620288
833	12234464	36025.173543633767	4653056
833	12533887	36025.894943111229	4685824
833	12725587	36026.221590700722	4718592
833	12759686	36026.266662308527	4751360
833	12761045	36026.268107224155	4784128
833	13241141	36027.089446708209	4816896
833	13331057	36027.226916064284	4849664
833	13400822	36027.343134640239	4882432
833	13412386	36027.36007425145	4915200
833	13433304	36027.392821548188	4947968
833	13446723	36027.413396289063	4980736
833	13469698	36027.453020274272	5013504
833	14126487	36028.475336004194	5046272
833	14151702	36028.51296741761	5079040
833	14179359	36028.553337796675	5111808
833	14287378	36028.741820418939	5144576
833	14339322	36028.806764224198	5177344
833	14687060	36029.404970526988	5210112
833	14796631	36029.562819624552	5242880
833	14799599	36029.567511459614	5275648
833	14850640	36029.644692384511	5308416
833	15483650	36030.62420813719	5341184
833	15495187	36030.641106471794	5373952
833	15507428	36030.65799183418	5406720
833	15594774	36030.771156392125	5439488
833	15613774	36030.798639312211	5472256
833	16297749	36031.901431963059	5505024
833	16307676	36031.913344278807	5537792
833	18118591	36034.934362694265	5570560
833	18165296	36035.002550818111	5603328
833	18221134	36035.078244517382	5636096
833	19785198	36037.722176669763	5668864
833	20370217	36038.832243920579	5701632
833	20507523	36039.043547280334	5734400
833	21067210	36039.905394324625	5767168
833	28176174	36051.062317298338	5799936
833	28176962	36051.063492508978	5832704
833	28179798	36051.068702119181	5865472
833	28179924	36051.069081663946	5898240
833	28184178	36051.078639721963	5931008
833	28184195	36051.078651021034	5963776
833	28185288	36051.080671707954	5996544
833	28185565	36051.081308487745	6029312
833	28186373	36051.083523576784	6062080
833	28194571	36051.101861237279	6094848
833	34443736	36061.073071666156	6127616
833	34444330	36061.073929573757	6160384
833	34453924	36061.088932289639	6193152
833	34456901	36061.094037848565	6225920
833	34465439	36061.105650435466	6258688
833	34475470	36061.120010793687	6291456
833	34476988	36061.121677924605	6324224
833	34478238	36061.123495500455	6356992
833	34478436	36061.123802990743	6389760
833	34478626	36061.124018492794	6422528
833	35671591	36063.023127340722	6455296
833	37519122	36066.15220254655	6488064
833	37606129	36066.277576818865	6520832
833	37953881	36066.845863040637	6553600
833	39335086	36069.382406124101	6586368
833	39535395	36069.706513013791	6619136