version 2
run Test-20-20200526-12:16:08-5346
attr configname Test
attr datetime 20200526-12:16:08
attr experiment "\"Simulation Test\""
attr inifile BasicConfig.ini
attr iterationvars ""
attr iterationvars2 $repetition=20
attr measurement "\"Peers: $peers, Rate: $rate\""
attr network BasicTopology
attr processid 5346
attr repetition 20
attr replication #20
attr resultdir results
attr runnumber 20
attr seedset 20

vector 3  BasicTopology.peer[1].bitTorrentApp.bitTorrentClient  DownloadComplete_Test:vector  ETV
attr source  BitTorrentClient_DownloadComplete_Test
attr title  "Descargas completas (prueba), vector"
vector 5  BasicTopology.peer[2].bitTorrentApp.bitTorrentClient  DownloadComplete_Test:vector  ETV
attr source  BitTorrentClient_DownloadComplete_Test
attr title  "Descargas completas (prueba), vector"
vector 7  BasicTopology.peer[3].bitTorrentApp.bitTorrentClient  DownloadComplete_Test:vector  ETV
attr source  BitTorrentClient_DownloadComplete_Test
attr title  "Descargas completas (prueba), vector"
vector 9  BasicTopology.peer[4].bitTorrentApp.bitTorrentClient  DownloadComplete_Test:vector  ETV
attr source  BitTorrentClient_DownloadComplete_Test
attr title  "Descargas completas (prueba), vector"
vector 11  BasicTopology.peer[5].bitTorrentApp.bitTorrentClient  DownloadComplete_Test:vector  ETV
attr source  BitTorrentClient_DownloadComplete_Test
attr title  "Descargas completas (prueba), vector"
vector 13  BasicTopology.peer[6].bitTorrentApp.bitTorrentClient  DownloadComplete_Test:vector  ETV
attr source  BitTorrentClient_DownloadComplete_Test
attr title  "Descargas completas (prueba), vector"
vector 15  BasicTopology.peer[7].bitTorrentApp.bitTorrentClient  DownloadComplete_Test:vector  ETV
attr source  BitTorrentClient_DownloadComplete_Test
attr title  "Descargas completas (prueba), vector"
vector 17  BasicTopology.peer[8].bitTorrentApp.bitTorrentClient  DownloadComplete_Test:vector  ETV
attr source  BitTorrentClient_DownloadComplete_Test
attr title  "Descargas completas (prueba), vector"
vector 19  BasicTopology.peer[9].bitTorrentApp.bitTorrentClient  DownloadComplete_Test:vector  ETV
attr source  BitTorrentClient_DownloadComplete_Test
attr title  "Descargas completas (prueba), vector"
vector 21  BasicTopology.peer[10].bitTorrentApp.bitTorrentClient  DownloadComplete_Test:vector  ETV
attr source  BitTorrentClient_DownloadComplete_Test
attr title  "Descargas completas (prueba), vector"
vector 23  BasicTopology.peer[11].bitTorrentApp.bitTorrentClient  DownloadComplete_Test:vector  ETV
attr source  BitTorrentClient_DownloadComplete_Test
attr title  "Descargas completas (prueba), vector"
vector 25  BasicTopology.peer[12].bitTorrentApp.bitTorrentClient  DownloadComplete_Test:vector  ETV
attr source  BitTorrentClient_DownloadComplete_Test
attr title  "Descargas completas (prueba), vector"
vector 27  BasicTopology.peer[13].bitTorrentApp.bitTorrentClient  DownloadComplete_Test:vector  ETV
attr source  BitTorrentClient_DownloadComplete_Test
attr title  "Descargas completas (prueba), vector"
vector 29  BasicTopology.peer[14].bitTorrentApp.bitTorrentClient  DownloadComplete_Test:vector  ETV
attr source  BitTorrentClient_DownloadComplete_Test
attr title  "Descargas completas (prueba), vector"
vector 31  BasicTopology.peer[15].bitTorrentApp.bitTorrentClient  DownloadComplete_Test:vector  ETV
attr source  BitTorrentClient_DownloadComplete_Test
attr title  "Descargas completas (prueba), vector"
vector 33  BasicTopology.peer[16].bitTorrentApp.bitTorrentClient  DownloadComplete_Test:vector  ETV
attr source  BitTorrentClient_DownloadComplete_Test
attr title  "Descargas completas (prueba), vector"
vector 35  BasicTopology.peer[17].bitTorrentApp.bitTorrentClient  DownloadComplete_Test:vector  ETV
attr source  BitTorrentClient_DownloadComplete_Test
attr title  "Descargas completas (prueba), vector"
vector 37  BasicTopology.peer[18].bitTorrentApp.bitTorrentClient  DownloadComplete_Test:vector  ETV
attr source  BitTorrentClient_DownloadComplete_Test
attr title  "Descargas completas (prueba), vector"
vector 39  BasicTopology.peer[19].bitTorrentApp.bitTorrentClient  DownloadComplete_Test:vector  ETV
attr source  BitTorrentClient_DownloadComplete_Test
attr title  "Descargas completas (prueba), vector"
vector 41  BasicTopology.peer[20].bitTorrentApp.bitTorrentClient  DownloadComplete_Test:vector  ETV
attr source  BitTorrentClient_DownloadComplete_Test
attr title  "Descargas completas (prueba), vector"
vector 43  BasicTopology.peer[21].bitTorrentApp.bitTorrentClient  DownloadComplete_Test:vector  ETV
attr source  BitTorrentClient_DownloadComplete_Test
attr title  "Descargas completas (prueba), vector"
vector 45  BasicTopology.peer[22].bitTorrentApp.bitTorrentClient  DownloadComplete_Test:vector  ETV
attr source  BitTorrentClient_DownloadComplete_Test
attr title  "Descargas completas (prueba), vector"
vector 47  BasicTopology.peer[23].bitTorrentApp.bitTorrentClient  DownloadComplete_Test:vector  ETV
attr source  BitTorrentClient_DownloadComplete_Test
attr title  "Descargas completas (prueba), vector"
vector 49  BasicTopology.peer[24].bitTorrentApp.bitTorrentClient  DownloadComplete_Test:vector  ETV
attr source  BitTorrentClient_DownloadComplete_Test
attr title  "Descargas completas (prueba), vector"
vector 833  BasicTopology.peer[0].bitTorrentApp.bitTorrentClient.contentManager_26  TotalBytesUploaded:vector  ETV
attr source  ContentManager_TotalBytesUploaded
attr title  "Total of Bytes Uploaded, vector"
attr unit  B
vector 1000  BasicTopology.peer[21].bitTorrentApp.bitTorrentClient.contentManager_26  TotalBytesDownloaded:vector  ETV
attr source  ContentManager_TotalBytesDownloaded
attr title  "Total of Bytes Downloaded, vector"
attr unit  B
vector 992  BasicTopology.peer[20].bitTorrentApp.bitTorrentClient.contentManager_26  TotalBytesDownloaded:vector  ETV
attr source  ContentManager_TotalBytesDownloaded
attr title  "Total of Bytes Downloaded, vector"
attr unit  B
vector 840  BasicTopology.peer[1].bitTorrentApp.bitTorrentClient.contentManager_26  TotalBytesDownloaded:vector  ETV
attr source  ContentManager_TotalBytesDownloaded
attr title  "Total of Bytes Downloaded, vector"
attr unit  B
vector 839  BasicTopology.peer[1].bitTorrentApp.bitTorrentClient.contentManager_26  PiecesDownloaded:vector  ETV
attr source  ContentManager_PieceDownloaded
attr title  "Pieces Downloaded, vector"
vector 841  BasicTopology.peer[1].bitTorrentApp.bitTorrentClient.contentManager_26  TotalBytesUploaded:vector  ETV
attr source  ContentManager_TotalBytesUploaded
attr title  "Total of Bytes Uploaded, vector"
attr unit  B
vector 920  BasicTopology.peer[11].bitTorrentApp.bitTorrentClient.contentManager_26  TotalBytesDownloaded:vector  ETV
attr source  ContentManager_TotalBytesDownloaded
attr title  "Total of Bytes Downloaded, vector"
attr unit  B
vector 936  BasicTopology.peer[13].bitTorrentApp.bitTorrentClient.contentManager_26  TotalBytesDownloaded:vector  ETV
attr source  ContentManager_TotalBytesDownloaded
attr title  "Total of Bytes Downloaded, vector"
attr unit  B
vector 991  BasicTopology.peer[20].bitTorrentApp.bitTorrentClient.contentManager_26  PiecesDownloaded:vector  ETV
attr source  ContentManager_PieceDownloaded
attr title  "Pieces Downloaded, vector"
vector 993  BasicTopology.peer[20].bitTorrentApp.bitTorrentClient.contentManager_26  TotalBytesUploaded:vector  ETV
attr source  ContentManager_TotalBytesUploaded
attr title  "Total of Bytes Uploaded, vector"
attr unit  B
vector 919  BasicTopology.peer[11].bitTorrentApp.bitTorrentClient.contentManager_26  PiecesDownloaded:vector  ETV
attr source  ContentManager_PieceDownloaded
attr title  "Pieces Downloaded, vector"
vector 921  BasicTopology.peer[11].bitTorrentApp.bitTorrentClient.contentManager_26  TotalBytesUploaded:vector  ETV
attr source  ContentManager_TotalBytesUploaded
attr title  "Total of Bytes Uploaded, vector"
attr unit  B
vector 872  BasicTopology.peer[5].bitTorrentApp.bitTorrentClient.contentManager_26  TotalBytesDownloaded:vector  ETV
attr source  ContentManager_TotalBytesDownloaded
attr title  "Total of Bytes Downloaded, vector"
attr unit  B
vector 864  BasicTopology.peer[4].bitTorrentApp.bitTorrentClient.contentManager_26  TotalBytesDownloaded:vector  ETV
attr source  ContentManager_TotalBytesDownloaded
attr title  "Total of Bytes Downloaded, vector"
attr unit  B
vector 952  BasicTopology.peer[15].bitTorrentApp.bitTorrentClient.contentManager_26  TotalBytesDownloaded:vector  ETV
attr source  ContentManager_TotalBytesDownloaded
attr title  "Total of Bytes Downloaded, vector"
attr unit  B
vector 928  BasicTopology.peer[12].bitTorrentApp.bitTorrentClient.contentManager_26  TotalBytesDownloaded:vector  ETV
attr source  ContentManager_TotalBytesDownloaded
attr title  "Total of Bytes Downloaded, vector"
attr unit  B
vector 999  BasicTopology.peer[21].bitTorrentApp.bitTorrentClient.contentManager_26  PiecesDownloaded:vector  ETV
attr source  ContentManager_PieceDownloaded
attr title  "Pieces Downloaded, vector"
vector 1001  BasicTopology.peer[21].bitTorrentApp.bitTorrentClient.contentManager_26  TotalBytesUploaded:vector  ETV
attr source  ContentManager_TotalBytesUploaded
attr title  "Total of Bytes Uploaded, vector"
attr unit  B
vector 863  BasicTopology.peer[4].bitTorrentApp.bitTorrentClient.contentManager_26  PiecesDownloaded:vector  ETV
attr source  ContentManager_PieceDownloaded
attr title  "Pieces Downloaded, vector"
vector 865  BasicTopology.peer[4].bitTorrentApp.bitTorrentClient.contentManager_26  TotalBytesUploaded:vector  ETV
attr source  ContentManager_TotalBytesUploaded
attr title  "Total of Bytes Uploaded, vector"
attr unit  B
vector 912  BasicTopology.peer[10].bitTorrentApp.bitTorrentClient.contentManager_26  TotalBytesDownloaded:vector  ETV
attr source  ContentManager_TotalBytesDownloaded
attr title  "Total of Bytes Downloaded, vector"
attr unit  B
vector 880  BasicTopology.peer[6].bitTorrentApp.bitTorrentClient.contentManager_26  TotalBytesDownloaded:vector  ETV
attr source  ContentManager_TotalBytesDownloaded
attr title  "Total of Bytes Downloaded, vector"
attr unit  B
vector 848  BasicTopology.peer[2].bitTorrentApp.bitTorrentClient.contentManager_26  TotalBytesDownloaded:vector  ETV
attr source  ContentManager_TotalBytesDownloaded
attr title  "Total of Bytes Downloaded, vector"
attr unit  B
vector 1024  BasicTopology.peer[24].bitTorrentApp.bitTorrentClient.contentManager_26  TotalBytesDownloaded:vector  ETV
attr source  ContentManager_TotalBytesDownloaded
attr title  "Total of Bytes Downloaded, vector"
attr unit  B
vector 904  BasicTopology.peer[9].bitTorrentApp.bitTorrentClient.contentManager_26  TotalBytesDownloaded:vector  ETV
attr source  ContentManager_TotalBytesDownloaded
attr title  "Total of Bytes Downloaded, vector"
attr unit  B
vector 896  BasicTopology.peer[8].bitTorrentApp.bitTorrentClient.contentManager_26  TotalBytesDownloaded:vector  ETV
attr source  ContentManager_TotalBytesDownloaded
attr title  "Total of Bytes Downloaded, vector"
attr unit  B
vector 888  BasicTopology.peer[7].bitTorrentApp.bitTorrentClient.contentManager_26  TotalBytesDownloaded:vector  ETV
attr source  ContentManager_TotalBytesDownloaded
attr title  "Total of Bytes Downloaded, vector"
attr unit  B
vector 1016  BasicTopology.peer[23].bitTorrentApp.bitTorrentClient.contentManager_26  TotalBytesDownloaded:vector  ETV
attr source  ContentManager_TotalBytesDownloaded
attr title  "Total of Bytes Downloaded, vector"
attr unit  B
vector 903  BasicTopology.peer[9].bitTorrentApp.bitTorrentClient.contentManager_26  PiecesDownloaded:vector  ETV
attr source  ContentManager_PieceDownloaded
attr title  "Pieces Downloaded, vector"
vector 905  BasicTopology.peer[9].bitTorrentApp.bitTorrentClient.contentManager_26  TotalBytesUploaded:vector  ETV
attr source  ContentManager_TotalBytesUploaded
attr title  "Total of Bytes Uploaded, vector"
attr unit  B
vector 927  BasicTopology.peer[12].bitTorrentApp.bitTorrentClient.contentManager_26  PiecesDownloaded:vector  ETV
attr source  ContentManager_PieceDownloaded
attr title  "Pieces Downloaded, vector"
vector 929  BasicTopology.peer[12].bitTorrentApp.bitTorrentClient.contentManager_26  TotalBytesUploaded:vector  ETV
attr source  ContentManager_TotalBytesUploaded
attr title  "Total of Bytes Uploaded, vector"
attr unit  B
vector 879  BasicTopology.peer[6].bitTorrentApp.bitTorrentClient.contentManager_26  PiecesDownloaded:vector  ETV
attr source  ContentManager_PieceDownloaded
attr title  "Pieces Downloaded, vector"
vector 911  BasicTopology.peer[10].bitTorrentApp.bitTorrentClient.contentManager_26  PiecesDownloaded:vector  ETV
attr source  ContentManager_PieceDownloaded
attr title  "Pieces Downloaded, vector"
vector 881  BasicTopology.peer[6].bitTorrentApp.bitTorrentClient.contentManager_26  TotalBytesUploaded:vector  ETV
attr source  ContentManager_TotalBytesUploaded
attr title  "Total of Bytes Uploaded, vector"
attr unit  B
vector 913  BasicTopology.peer[10].bitTorrentApp.bitTorrentClient.contentManager_26  TotalBytesUploaded:vector  ETV
attr source  ContentManager_TotalBytesUploaded
attr title  "Total of Bytes Uploaded, vector"
attr unit  B
vector 856  BasicTopology.peer[3].bitTorrentApp.bitTorrentClient.contentManager_26  TotalBytesDownloaded:vector  ETV
attr source  ContentManager_TotalBytesDownloaded
attr title  "Total of Bytes Downloaded, vector"
attr unit  B
vector 984  BasicTopology.peer[19].bitTorrentApp.bitTorrentClient.contentManager_26  TotalBytesDownloaded:vector  ETV
attr source  ContentManager_TotalBytesDownloaded
attr title  "Total of Bytes Downloaded, vector"
attr unit  B
vector 976  BasicTopology.peer[18].bitTorrentApp.bitTorrentClient.contentManager_26  TotalBytesDownloaded:vector  ETV
attr source  ContentManager_TotalBytesDownloaded
attr title  "Total of Bytes Downloaded, vector"
attr unit  B
vector 1008  BasicTopology.peer[22].bitTorrentApp.bitTorrentClient.contentManager_26  TotalBytesDownloaded:vector  ETV
attr source  ContentManager_TotalBytesDownloaded
attr title  "Total of Bytes Downloaded, vector"
attr unit  B
vector 935  BasicTopology.peer[13].bitTorrentApp.bitTorrentClient.contentManager_26  PiecesDownloaded:vector  ETV
attr source  ContentManager_PieceDownloaded
attr title  "Pieces Downloaded, vector"
vector 937  BasicTopology.peer[13].bitTorrentApp.bitTorrentClient.contentManager_26  TotalBytesUploaded:vector  ETV
attr source  ContentManager_TotalBytesUploaded
attr title  "Total of Bytes Uploaded, vector"
attr unit  B
vector 983  BasicTopology.peer[19].bitTorrentApp.bitTorrentClient.contentManager_26  PiecesDownloaded:vector  ETV
attr source  ContentManager_PieceDownloaded
attr title  "Pieces Downloaded, vector"
vector 855  BasicTopology.peer[3].bitTorrentApp.bitTorrentClient.contentManager_26  PiecesDownloaded:vector  ETV
attr source  ContentManager_PieceDownloaded
attr title  "Pieces Downloaded, vector"
vector 975  BasicTopology.peer[18].bitTorrentApp.bitTorrentClient.contentManager_26  PiecesDownloaded:vector  ETV
attr source  ContentManager_PieceDownloaded
attr title  "Pieces Downloaded, vector"
vector 857  BasicTopology.peer[3].bitTorrentApp.bitTorrentClient.contentManager_26  TotalBytesUploaded:vector  ETV
attr source  ContentManager_TotalBytesUploaded
attr title  "Total of Bytes Uploaded, vector"
attr unit  B
vector 887  BasicTopology.peer[7].bitTorrentApp.bitTorrentClient.contentManager_26  PiecesDownloaded:vector  ETV
attr source  ContentManager_PieceDownloaded
attr title  "Pieces Downloaded, vector"
vector 895  BasicTopology.peer[8].bitTorrentApp.bitTorrentClient.contentManager_26  PiecesDownloaded:vector  ETV
attr source  ContentManager_PieceDownloaded
attr title  "Pieces Downloaded, vector"
vector 1007  BasicTopology.peer[22].bitTorrentApp.bitTorrentClient.contentManager_26  PiecesDownloaded:vector  ETV
attr source  ContentManager_PieceDownloaded
attr title  "Pieces Downloaded, vector"
vector 985  BasicTopology.peer[19].bitTorrentApp.bitTorrentClient.contentManager_26  TotalBytesUploaded:vector  ETV
attr source  ContentManager_TotalBytesUploaded
attr title  "Total of Bytes Uploaded, vector"
attr unit  B
vector 1009  BasicTopology.peer[22].bitTorrentApp.bitTorrentClient.contentManager_26  TotalBytesUploaded:vector  ETV
attr source  ContentManager_TotalBytesUploaded
attr title  "Total of Bytes Uploaded, vector"
attr unit  B
vector 960  BasicTopology.peer[16].bitTorrentApp.bitTorrentClient.contentManager_26  TotalBytesDownloaded:vector  ETV
attr source  ContentManager_TotalBytesDownloaded
attr title  "Total of Bytes Downloaded, vector"
attr unit  B
vector 1023  BasicTopology.peer[24].bitTorrentApp.bitTorrentClient.contentManager_26  PiecesDownloaded:vector  ETV
attr source  ContentManager_PieceDownloaded
attr title  "Pieces Downloaded, vector"
vector 959  BasicTopology.peer[16].bitTorrentApp.bitTorrentClient.contentManager_26  PiecesDownloaded:vector  ETV
attr source  ContentManager_PieceDownloaded
attr title  "Pieces Downloaded, vector"
vector 847  BasicTopology.peer[2].bitTorrentApp.bitTorrentClient.contentManager_26  PiecesDownloaded:vector  ETV
attr source  ContentManager_PieceDownloaded
attr title  "Pieces Downloaded, vector"
vector 944  BasicTopology.peer[14].bitTorrentApp.bitTorrentClient.contentManager_26  TotalBytesDownloaded:vector  ETV
attr source  ContentManager_TotalBytesDownloaded
attr title  "Total of Bytes Downloaded, vector"
attr unit  B
vector 1025  BasicTopology.peer[24].bitTorrentApp.bitTorrentClient.contentManager_26  TotalBytesUploaded:vector  ETV
attr source  ContentManager_TotalBytesUploaded
attr title  "Total of Bytes Uploaded, vector"
attr unit  B
vector 871  BasicTopology.peer[5].bitTorrentApp.bitTorrentClient.contentManager_26  PiecesDownloaded:vector  ETV
attr source  ContentManager_PieceDownloaded
attr title  "Pieces Downloaded, vector"
vector 873  BasicTopology.peer[5].bitTorrentApp.bitTorrentClient.contentManager_26  TotalBytesUploaded:vector  ETV
attr source  ContentManager_TotalBytesUploaded
attr title  "Total of Bytes Uploaded, vector"
attr unit  B
vector 968  BasicTopology.peer[17].bitTorrentApp.bitTorrentClient.contentManager_26  TotalBytesDownloaded:vector  ETV
attr source  ContentManager_TotalBytesDownloaded
attr title  "Total of Bytes Downloaded, vector"
attr unit  B
vector 849  BasicTopology.peer[2].bitTorrentApp.bitTorrentClient.contentManager_26  TotalBytesUploaded:vector  ETV
attr source  ContentManager_TotalBytesUploaded
attr title  "Total of Bytes Uploaded, vector"
attr unit  B
vector 967  BasicTopology.peer[17].bitTorrentApp.bitTorrentClient.contentManager_26  PiecesDownloaded:vector  ETV
attr source  ContentManager_PieceDownloaded
attr title  "Pieces Downloaded, vector"
vector 951  BasicTopology.peer[15].bitTorrentApp.bitTorrentClient.contentManager_26  PiecesDownloaded:vector  ETV
attr source  ContentManager_PieceDownloaded
attr title  "Pieces Downloaded, vector"
vector 961  BasicTopology.peer[16].bitTorrentApp.bitTorrentClient.contentManager_26  TotalBytesUploaded:vector  ETV
attr source  ContentManager_TotalBytesUploaded
attr title  "Total of Bytes Uploaded, vector"
attr unit  B
vector 889  BasicTopology.peer[7].bitTorrentApp.bitTorrentClient.contentManager_26  TotalBytesUploaded:vector  ETV
attr source  ContentManager_TotalBytesUploaded
attr title  "Total of Bytes Uploaded, vector"
attr unit  B
vector 943  BasicTopology.peer[14].bitTorrentApp.bitTorrentClient.contentManager_26  PiecesDownloaded:vector  ETV
attr source  ContentManager_PieceDownloaded
attr title  "Pieces Downloaded, vector"
vector 1015  BasicTopology.peer[23].bitTorrentApp.bitTorrentClient.contentManager_26  PiecesDownloaded:vector  ETV
attr source  ContentManager_PieceDownloaded
attr title  "Pieces Downloaded, vector"
vector 1017  BasicTopology.peer[23].bitTorrentApp.bitTorrentClient.contentManager_26  TotalBytesUploaded:vector  ETV
attr source  ContentManager_TotalBytesUploaded
attr title  "Total of Bytes Uploaded, vector"
attr unit  B
vector 969  BasicTopology.peer[17].bitTorrentApp.bitTorrentClient.contentManager_26  TotalBytesUploaded:vector  ETV
attr source  ContentManager_TotalBytesUploaded
attr title  "Total of Bytes Uploaded, vector"
attr unit  B
vector 945  BasicTopology.peer[14].bitTorrentApp.bitTorrentClient.contentManager_26  TotalBytesUploaded:vector  ETV
attr source  ContentManager_TotalBytesUploaded
attr title  "Total of Bytes Uploaded, vector"
attr unit  B
3	85	36001	36001
3	18760325	36038.025779674689	36038.025779675
5	86	36001	36001
5	46369724	36083.89614593493	36083.896145935
7	87	36001	36001
7	69915701	36131.869082305451	36131.869082305
9	88	36001	36001
9	78795744	36192.330866382689	36192.330866383
11	89	36001	36001
11	72425184	36137.130663572226	36137.130663572
13	90	36001	36001
13	73221866	36139.514994038126	36139.514994038
15	91	36001	36001
15	76723516	36154.879896550204	36154.87989655
17	92	36001	36001
17	63955523	36118.310712684827	36118.310712685
19	93	36001	36001
19	74888042	36144.176461155085	36144.176461155
21	94	36001	36001
21	73962251	36141.568207432677	36141.568207433
23	95	36001	36001
23	64379873	36119.221698312093	36119.221698312
25	96	36001	36001
25	71267471	36134.667956680784	36134.667956681
27	97	36001	36001
27	75859178	36148.241276055292	36148.241276055
29	98	36001	36001
29	78717711	36192.110302561211	36192.110302561
31	99	36001	36001
31	76301581	36152.450570210224	36152.45057021
33	100	36001	36001
33	69315708	36130.225334717084	36130.225334717
35	101	36001	36001
35	68619159	36128.733061364186	36128.733061364
37	102	36001	36001
37	72176967	36136.608245003932	36136.608245004
39	103	36001	36001
39	75707809	36147.736620815895	36147.736620816
41	104	36001	36001
41	18625145	36037.832339077939	36037.832339078
43	105	36001	36001
43	28685810	36053.706212884092	36053.706212884
45	106	36001	36001
45	29035670	36054.274363966218	36054.274363966
47	107	36001	36001
47	69562809	36130.760762456184	36130.760762456
49	108	36001	36001
49	74771935	36143.445495649878	36143.44549565
833	543873	36003.042991729804	32768
833	544197	36003.043831107845	65536
833	544210	36003.043928377942	98304
833	545123	36003.045445429334	131072
833	550475	36003.058322790706	163840
833	552619	36003.065315007406	196608
833	555805	36003.080438437337	229376
833	557125	36003.085385143488	262144
833	560040	36003.096886837337	294912
833	560088	36003.097029049366	327680
833	563861	36003.109072825067	360448
833	563949	36003.109362207828	393216
833	564362	36003.110812342198	425984
833	564939	36003.112999349768	458752
833	567172	36003.118776576103	491520
833	567382	36003.119425038787	524288
833	567412	36003.119538327764	557056
833	567830	36003.120767459495	589824
833	567938	36003.121058512777	622592
833	576004	36003.141451590471	655360
833	576202	36003.141982535331	688128
833	576732	36003.142884929836	720896
833	576974	36003.143414107146	753664
833	581487	36003.155131966571	786432
833	581722	36003.155815152807	819200
833	582084	36003.156911233836	851968
833	582737	36003.158829028916	884736
833	583504	36003.162023930668	917504
833	590432	36003.186458647316	950272
833	590545	36003.186861120268	983040
833	591930	36003.190029919221	1015808
833	611518	36003.253627404485	1048576
833	635381	36003.332927611222	1081344
833	690248	36004.037897162813	1114112
833	690844	36004.038285134546	1146880
833	708867	36004.052943685329	1179648
833	715798	36004.058507922451	1212416
833	715913	36004.058620148141	1245184
833	729221	36004.069392638004	1277952
833	747203	36004.086042968387	1310720
833	758702	36004.097879392256	1343488
833	759768	36004.099249737486	1376256
833	777886	36004.12051733344	1409024
833	810702	36004.159018843573	1441792
833	855729	36004.26468093154	1474560
833	865527	36004.303113832026	1507328
833	890491	36004.396242213757	1540096
833	896463	36004.418660905029	1572864
833	903544	36004.441741783852	1605632
833	915598	36004.478245908747	1638400
833	919581	36004.491932328577	1671168
833	1090654	36005.457108627538	1703936
833	1111827	36005.525308479572	1736704
833	1120618	36005.548618864118	1769472
833	1134304	36005.578897545	1802240
833	1142327	36005.599998853403	1835008
833	1180424	36006.524519077197	1867776
833	1195703	36006.584731378319	1900544
833	1227753	36006.675551847032	1933312
833	1248451	36006.770995562732	1966080
833	1266416	36006.814258030304	1998848
833	1274878	36006.836885898603	2031616
833	1281399	36006.86007225114	2064384
833	1294086	36006.904470047564	2097152
833	1371337	36007.639937789879	2129920
833	1382158	36007.678565534311	2162688
833	1422973	36007.794964619041	2195456
833	1426473	36007.806078310702	2228224
833	1436803	36007.841158007207	2260992
833	1447971	36007.974528006489	2293760
833	1470433	36008.051489675839	2326528
833	1478169	36008.075760265841	2359296
833	1497935	36008.146724000335	2392064
833	1676108	36008.787691810148	2424832
833	1715532	36008.879759840602	2457600
833	1761226	36009.189627394803	2490368
833	2011477	36009.868003982571	2523136
833	2030178	36009.909661531619	2555904
833	2051535	36009.953817467274	2588672
833	2051731	36009.954170152116	2621440
833	2052445	36009.956153684104	2654208
833	2052473	36009.956373233636	2686976
833	2115098	36010.03253598346	2719744
833	2244558	36010.26247756545	2752512
833	2329942	36010.51780707454	2785280
833	2336711	36010.533327751735	2818048
833	2452775	36010.818648603347	2850816
833	2509887	36010.944642515723	2883584
833	2593473	36011.174822825436	2916352
833	2623110	36011.245767673942	2949120
833	2659276	36011.340469979652	2981888
833	2724998	36011.504268663508	3014656
833	2975204	36012.072688747934	3047424
833	3009250	36012.161501830807	3080192
833	3057383	36012.264844322683	3112960
833	3100618	36012.356362566381	3145728
833	3147871	36012.456554686191	3178496
833	3200554	36012.60214429376	3211264
833	3212914	36012.640917359881	3244032
833	3217546	36012.654361763457	3276800
833	3217601	36012.65446871075	3309568
833	3279641	36012.860885641319	3342336
833	3317356	36012.988402485546	3375104
833	3397416	36013.093006622681	3407872
833	3752362	36013.836233141029	3440640
833	3960680	36014.176156565488	3473408
833	4018951	36014.297978959014	3506176
833	4060183	36014.364609362839	3538944
833	4107859	36014.452281255372	3571712
833	4129903	36014.492798590134	3604480
833	4145878	36014.533261133648	3637248
833	4189039	36014.626831303425	3670016
833	4750202	36015.65885635317	3702784
833	4891522	36015.84741676814	3735552
833	4906737	36015.873769742869	3768320
833	4939845	36015.932022035105	3801088
833	4981169	36016.017913803191	3833856
833	5379047	36016.928503485102	3866624
833	5418609	36016.999122809653	3899392
833	5490483	36017.118876541308	3932160
833	5520205	36017.161341613563	3964928
833	5575480	36017.234241490114	3997696
833	6143084	36018.331315154082	4030464
833	6204754	36018.396444810131	4063232
833	6688779	36019.234443314737	4096000
833	6830855	36019.431909460771	4128768
833	6862055	36019.476322913748	4161536
833	6906530	36019.531028283836	4194304
833	6934031	36019.566411172578	4227072
833	6952724	36019.600655174542	4259840
833	7544174	36020.623889828419	4292608
833	7588948	36020.690887127205	4325376
833	7594062	36020.697986135362	4358144
833	7646922	36020.779056171867	4390912
833	8023801	36021.400260346267	4423680
833	8034971	36021.42652828914	4456448
833	8131819	36021.639269276375	4489216
833	8257843	36021.813834208738	4521984
833	8936444	36022.730355689569	4554752
833	9008500	36022.824880283767	4587520
833	9069185	36022.904692081462	4620288
833	9140718	36022.999515402558	4653056
833	9146342	36023.005971447168	4685824
833	9214859	36023.092425962886	4718592
833	9254630	36023.14257695101	4751360
833	9788278	36024.034421523236	4784128
833	9823312	36024.08366471963	4816896
833	10470233	36025.102722692009	4849664
833	10505436	36025.167125185075	4882432
833	10506387	36025.169935162843	4915200
833	10530598	36025.228847703283	4947968
833	11208924	36026.255157760948	4980736
833	11249105	36026.317433809191	5013504
833	11273540	36026.352500184514	5046272
833	11295786	36026.38544596832	5079040
833	11319560	36026.421624295006	5111808
833	11381692	36026.50438134226	5144576
833	11486247	36026.621080529892	5177344
833	11971691	36027.451979729171	5210112
833	11977074	36027.458246154407	5242880
833	12003283	36027.49639653486	5275648
833	12024217	36027.529111210882	5308416
833	12659451	36028.545214344835	5341184
833	12740608	36028.664081883212	5373952
833	12789464	36028.743137503514	5406720
833	12845779	36028.835523218134	5439488
833	12896393	36028.908687847839	5472256
833	13442535	36029.842858930013	5505024
833	13870843	36030.630298891903	5537792
833	13870939	36030.631170177278	5570560
833	13870946	36030.644581794084	5603328
833	13927165	36030.773070984384	5636096
833	13948564	36030.813849783366	5668864
833	14045520	36030.950908674094	5701632
833	14058732	36030.967048443602	5734400
833	14085374	36031.002103582019	5767168
833	14093829	36031.012814298545	5799936
833	14724679	36032.059009326404	5832704
833	14750500	36032.10152013677	5865472
833	14753964	36032.107627149025	5898240
833	14795161	36032.175048797543	5931008
833	14842173	36032.243430360102	5963776
833	14878109	36032.292010547056	5996544
833	14914875	36032.341842094426	6029312
833	14935060	36032.36701546941	6062080
833	15396729	36033.049669765706	6094848
833	15400004	36033.054753409601	6127616
833	15400509	36033.055469975369	6160384
833	15401000	36033.056162501452	6193152
833	15405991	36033.063256970082	6225920
833	15407890	36033.066145969983	6258688
833	15408075	36033.066609699595	6291456
833	15408085	36033.066696767037	6324224
833	15408513	36033.067537188053	6356992
833	15408926	36033.068073005278	6389760
833	16865360	36035.186996741196	6422528
833	16921990	36035.268134820971	6455296
833	17025609	36035.411989412993	6488064
833	17104175	36035.526959399715	6520832
833	17668205	36036.345520454349	6553600
833	17786166	36036.519960746715	6586368
833	17885744	36036.653684250182	6619136
833	17946781	36036.727876669651	6651904
833	18031728	36036.847902591483	6684672
833	18698639	36037.950665339273	6717440
833	18699254	36037.951812017501	6750208
833	18700632	36037.9537006188	6782976
833	18701845	36037.954978917132	6815744