file 217125 1593887687                                          
version 2
run Test-24-20200526-12:16:23-5366
attr configname Test
attr datetime 20200526-12:16:23
attr experiment "\"Simulation Test\""
attr inifile BasicConfig.ini
attr iterationvars ""
attr iterationvars2 $repetition=24
attr measurement "\"Peers: $peers, Rate: $rate\""
attr network BasicTopology
attr processid 5366
attr repetition 24
attr replication #24
attr resultdir results
attr runnumber 24
attr seedset 24
vector 3  BasicTopology.peer[1].bitTorrentApp.bitTorrentClient  DownloadComplete_Test:vector  ETV
attr source BitTorrentClient_DownloadComplete_Test
attr title "Descargas completas (prueba), vector"
3	20590 63 85 61042172 36001 36107.512107387318 2 36001 36107.512107387 72108.512107387 2599824431.5851
vector 5  BasicTopology.peer[2].bitTorrentApp.bitTorrentClient  DownloadComplete_Test:vector  ETV
attr source BitTorrentClient_DownloadComplete_Test
attr title "Descargas completas (prueba), vector"
5	20653 63 86 61691542 36001 36108.771060963053 2 36001 36108.771060963 72109.771060963 2599915348.533
vector 7  BasicTopology.peer[3].bitTorrentApp.bitTorrentClient  DownloadComplete_Test:vector  ETV
attr source BitTorrentClient_DownloadComplete_Test
attr title "Descargas completas (prueba), vector"
7	20716 63 87 69441323 36001 36125.808022963406 2 36001 36125.808022963 72126.808022963 2601146006.312
vector 9  BasicTopology.peer[4].bitTorrentApp.bitTorrentClient  DownloadComplete_Test:vector  ETV
attr source BitTorrentClient_DownloadComplete_Test
attr title "Descargas completas (prueba), vector"
9	20779 63 88 75772435 36001 36140.624552737992 2 36001 36140.624552738 72141.624552738 2602216744.062
vector 11  BasicTopology.peer[5].bitTorrentApp.bitTorrentClient  DownloadComplete_Test:vector  ETV
attr source BitTorrentClient_DownloadComplete_Test
attr title "Descargas completas (prueba), vector"
11	20842 64 89 76684385 36001 36142.80209841298 2 36001 36142.802098413 72143.802098413 2602374144.525
vector 13  BasicTopology.peer[6].bitTorrentApp.bitTorrentClient  DownloadComplete_Test:vector  ETV
attr source BitTorrentClient_DownloadComplete_Test
attr title "Descargas completas (prueba), vector"
13	20906 65 90 74980430 36001 36138.410468429466 2 36001 36138.410468429 72139.410468429 2602056712.1847
vector 15  BasicTopology.peer[7].bitTorrentApp.bitTorrentClient  DownloadComplete_Test:vector  ETV
attr source BitTorrentClient_DownloadComplete_Test
attr title "Descargas completas (prueba), vector"
15	20971 65 91 77825696 36001 36146.869656098944 2 36001 36146.869656099 72147.869656099 2602668186.935
vector 17  BasicTopology.peer[8].bitTorrentApp.bitTorrentClient  DownloadComplete_Test:vector  ETV
attr source BitTorrentClient_DownloadComplete_Test
attr title "Descargas completas (prueba), vector"
17	21036 64 92 70794711 36001 36128.49737037422 2 36001 36128.497370374 72129.497370374 2601340323.2411
vector 19  BasicTopology.peer[9].bitTorrentApp.bitTorrentClient  DownloadComplete_Test:vector  ETV
attr source BitTorrentClient_DownloadComplete_Test
attr title "Descargas completas (prueba), vector"
19	21100 63 93 72911851 36001 36132.961153899608 2 36001 36132.9611539 72133.9611539 2601662882.7492
vector 21  BasicTopology.peer[10].bitTorrentApp.bitTorrentClient  DownloadComplete_Test:vector  ETV
attr source BitTorrentClient_DownloadComplete_Test
attr title "Descargas completas (prueba), vector"
21	21163 64 94 79237990 36001 36152.543271839673 2 36001 36152.54327184 72153.54327184 2603078386.0223
vector 23  BasicTopology.peer[11].bitTorrentApp.bitTorrentClient  DownloadComplete_Test:vector  ETV
attr source BitTorrentClient_DownloadComplete_Test
attr title "Descargas completas (prueba), vector"
23	21227 65 95 71400517 36001 36129.754530668295 2 36001 36129.754530668 72130.754530668 2601431163.4463
vector 25  BasicTopology.peer[12].bitTorrentApp.bitTorrentClient  DownloadComplete_Test:vector  ETV
attr source BitTorrentClient_DownloadComplete_Test
attr title "Descargas completas (prueba), vector"
25	21292 65 96 76783479 36001 36143.035867333225 2 36001 36143.035867333 72144.035867333 2602391042.7073
vector 27  BasicTopology.peer[13].bitTorrentApp.bitTorrentClient  DownloadComplete_Test:vector  ETV
attr source BitTorrentClient_DownloadComplete_Test
attr title "Descargas completas (prueba), vector"
27	21357 64 97 81595210 36001 36181.62206797099 2 36001 36181.622067971 72182.622067971 2605181776.4695
vector 29  BasicTopology.peer[14].bitTorrentApp.bitTorrentClient  DownloadComplete_Test:vector  ETV
attr source BitTorrentClient_DownloadComplete_Test
attr title "Descargas completas (prueba), vector"
29	21421 65 98 75601249 36001 36140.197984547772 2 36001 36140.197984548 72141.197984548 2602185911.3623
vector 31  BasicTopology.peer[15].bitTorrentApp.bitTorrentClient  DownloadComplete_Test:vector  ETV
attr source BitTorrentClient_DownloadComplete_Test
attr title "Descargas completas (prueba), vector"
31	21486 64 99 77569655 36001 36145.21292232199 2 36001 36145.212922322 72146.212922322 2602548418.2
vector 33  BasicTopology.peer[16].bitTorrentApp.bitTorrentClient  DownloadComplete_Test:vector  ETV
attr source BitTorrentClient_DownloadComplete_Test
attr title "Descargas completas (prueba), vector"
33	21550 66 100 75843122 36001 36140.788608754359 2 36001 36140.788608754 72141.788608754 2602228602.2626
vector 35  BasicTopology.peer[17].bitTorrentApp.bitTorrentClient  DownloadComplete_Test:vector  ETV
attr source BitTorrentClient_DownloadComplete_Test
attr title "Descargas completas (prueba), vector"
35	21616 66 101 80650586 36001 36169.471146781186 2 36001 36169.471146781 72170.471146781 2604302644.0378
vector 37  BasicTopology.peer[18].bitTorrentApp.bitTorrentClient  DownloadComplete_Test:vector  ETV
attr source BitTorrentClient_DownloadComplete_Test
attr title "Descargas completas (prueba), vector"
37	21682 66 102 79140053 36001 36152.327028712546 2 36001 36152.327028713 72153.327028713 2603062750.591
vector 39  BasicTopology.peer[19].bitTorrentApp.bitTorrentClient  DownloadComplete_Test:vector  ETV
attr source BitTorrentClient_DownloadComplete_Test
attr title "Descargas completas (prueba), vector"
39	21748 66 103 75275998 36001 36139.400849663554 2 36001 36139.400849664 72140.400849664 2602128294.7727
vector 41  BasicTopology.peer[20].bitTorrentApp.bitTorrentClient  DownloadComplete_Test:vector  ETV
attr source BitTorrentClient_DownloadComplete_Test
attr title "Descargas completas (prueba), vector"
41	21814 66 104 79875443 36001 36155.516902224251 2 36001 36155.516902224 72156.516902224 2603293403.467
vector 43  BasicTopology.peer[21].bitTorrentApp.bitTorrentClient  DownloadComplete_Test:vector  ETV
attr source BitTorrentClient_DownloadComplete_Test
attr title "Descargas completas (prueba), vector"
43	21880 66 105 17533835 36001 36033.306040074377 2 36001 36033.306040074 72034.306040074 2594471145.1776
vector 45  BasicTopology.peer[22].bitTorrentApp.bitTorrentClient  DownloadComplete_Test:vector  ETV
attr source BitTorrentClient_DownloadComplete_Test
attr title "Descargas completas (prueba), vector"
45	21946 64 106 43536763 36001 36075.061672499868 2 36001 36075.0616725 72076.0616725 2597482075.6747
vector 47  BasicTopology.peer[23].bitTorrentApp.bitTorrentClient  DownloadComplete_Test:vector  ETV
attr source BitTorrentClient_DownloadComplete_Test
attr title "Descargas completas (prueba), vector"
47	22010 66 107 50520043 36001 36086.883769096893 2 36001 36086.883769097 72087.883769097 2598335181.1643
vector 49  BasicTopology.peer[24].bitTorrentApp.bitTorrentClient  DownloadComplete_Test:vector  ETV
attr source BitTorrentClient_DownloadComplete_Test
attr title "Descargas completas (prueba), vector"
49	22076 66 108 79262664 36001 36153.122955896192 2 36001 36153.122955896 72154.122955896 2603120300.4641
vector 833  BasicTopology.peer[0].bitTorrentApp.bitTorrentClient.contentManager_26  TotalBytesUploaded:vector  ETV
attr source ContentManager_TotalBytesUploaded
attr title "Total of Bytes Uploaded, vector"
attr unit B
833	22142 8601 364238 68170980 36001.714853560795 36122.653149809022 221 32768 7241728 803831808 3.8895341944177e+15
vector 936  BasicTopology.peer[13].bitTorrentApp.bitTorrentClient.contentManager_26  TotalBytesDownloaded:vector  ETV
attr source ContentManager_TotalBytesDownloaded
attr title "Total of Bytes Downloaded, vector"
attr unit B
936	124524 3760 643237 81595210 36003.002550450659 36181.62206797099 96 32768 3145728 152567808 3.2162433099366e+14
vector 1000  BasicTopology.peer[21].bitTorrentApp.bitTorrentClient.contentManager_26  TotalBytesDownloaded:vector  ETV
attr source ContentManager_TotalBytesDownloaded
attr title "Total of Bytes Downloaded, vector"
attr unit B
1000	172868 3824 832005 17533835 36003.591955745538 36033.306040074377 96 32768 3145728 152567808 3.2162433099366e+14
vector 880  BasicTopology.peer[6].bitTorrentApp.bitTorrentClient.contentManager_26  TotalBytesDownloaded:vector  ETV
attr source ContentManager_TotalBytesDownloaded
attr title "Total of Bytes Downloaded, vector"
attr unit B
880	67745 3783 1114530 74980430 36004.250214187893 36138.410468429466 96 32768 3145728 152567808 3.2162433099366e+14
vector 935  BasicTopology.peer[13].bitTorrentApp.bitTorrentClient.contentManager_26  PiecesDownloaded:vector  ETV
attr source ContentManager_PieceDownloaded
attr title "Pieces Downloaded, vector"
935	124117 407 1321604 81595210 36004.675253300225 36181.62206797099 12 0 11 66 506
vector 937  BasicTopology.peer[13].bitTorrentApp.bitTorrentClient.contentManager_26  TotalBytesUploaded:vector  ETV
attr source ContentManager_TotalBytesUploaded
attr title "Total of Bytes Uploaded, vector"
attr unit B
937	128284 5753 1349934 76025240 36004.731077378408 36141.283501969251 147 32768 4816896 356450304 1.1485494168781e+15
vector 999  BasicTopology.peer[21].bitTorrentApp.bitTorrentClient.contentManager_26  PiecesDownloaded:vector  ETV
attr source ContentManager_PieceDownloaded
attr title "Pieces Downloaded, vector"
999	172467 401 1438812 17533835 36005.029142452942 36033.306040074377 12 0 11 66 506
vector 1001  BasicTopology.peer[21].bitTorrentApp.bitTorrentClient.contentManager_26  TotalBytesUploaded:vector  ETV
attr source ContentManager_TotalBytesUploaded
attr title "Total of Bytes Uploaded, vector"
attr unit B
1001	176692 10693 1449507 72649289 36005.048076382506 36132.333293573992 264 32768 8650752 1146224640 6.6229898942874e+15
vector 920  BasicTopology.peer[11].bitTorrentApp.bitTorrentClient.contentManager_26  TotalBytesDownloaded:vector  ETV
attr source ContentManager_TotalBytesDownloaded
attr title "Total of Bytes Downloaded, vector"
attr unit B
920	106833 3778 1504424 71400517 36005.249047171834 36129.754530668295 96 32768 3145728 152567808 3.2162433099366e+14
vector 968  BasicTopology.peer[17].bitTorrentApp.bitTorrentClient.contentManager_26  TotalBytesDownloaded:vector  ETV
attr source ContentManager_TotalBytesDownloaded
attr title "Total of Bytes Downloaded, vector"
attr unit B
968	148749 3789 1812673 80650586 36006.234045333595 36169.471146781186 96 32768 3145728 152567808 3.2162433099366e+14
vector 864  BasicTopology.peer[4].bitTorrentApp.bitTorrentClient.contentManager_26  TotalBytesDownloaded:vector  ETV
attr source ContentManager_TotalBytesDownloaded
attr title "Total of Bytes Downloaded, vector"
attr unit B
864	57163 3785 1958745 75772435 36006.530180439352 36140.624552737992 96 32768 3145728 152567808 3.2162433099366e+14
vector 928  BasicTopology.peer[12].bitTorrentApp.bitTorrentClient.contentManager_26  TotalBytesDownloaded:vector  ETV
attr source ContentManager_TotalBytesDownloaded
attr title "Total of Bytes Downloaded, vector"
attr unit B
928	117090 3775 1996821 76783479 36006.639121521506 36143.035867333225 96 32768 3145728 152567808 3.2162433099366e+14
vector 848  BasicTopology.peer[2].bitTorrentApp.bitTorrentClient.contentManager_26  TotalBytesDownloaded:vector  ETV
attr source ContentManager_TotalBytesDownloaded
attr title "Total of Bytes Downloaded, vector"
attr unit B
848	41059 3783 2420071 61691542 36007.717796574439 36108.771060963053 96 32768 3145728 152567808 3.2162433099366e+14
vector 888  BasicTopology.peer[7].bitTorrentApp.bitTorrentClient.contentManager_26  TotalBytesDownloaded:vector  ETV
attr source ContentManager_TotalBytesDownloaded
attr title "Total of Bytes Downloaded, vector"
attr unit B
888	77589 3907 2483747 77825696 36007.886499463751 36146.869656098944 99 32768 3244032 162201600 3.525631279104e+14
vector 879  BasicTopology.peer[6].bitTorrentApp.bitTorrentClient.contentManager_26  PiecesDownloaded:vector  ETV
attr source ContentManager_PieceDownloaded
attr title "Pieces Downloaded, vector"
879	67338 407 2712265 74980430 36008.31793466488 36138.410468429466 12 0 11 66 506
vector 881  BasicTopology.peer[6].bitTorrentApp.bitTorrentClient.contentManager_26  TotalBytesUploaded:vector  ETV
attr source ContentManager_TotalBytesUploaded
attr title "Total of Bytes Uploaded, vector"
attr unit B
881	71528 5653 2724121 48170194 36008.333479167924 36082.758015533761 144 32768 4718592 342097920 1.0798836272333e+15
vector 896  BasicTopology.peer[8].bitTorrentApp.bitTorrentClient.contentManager_26  TotalBytesDownloaded:vector  ETV
attr source ContentManager_TotalBytesDownloaded
attr title "Total of Bytes Downloaded, vector"
attr unit B
896	84680 3773 3249873 70794711 36009.779240958025 36128.49737037422 96 32768 3145728 152567808 3.2162433099366e+14
vector 919  BasicTopology.peer[11].bitTorrentApp.bitTorrentClient.contentManager_26  PiecesDownloaded:vector  ETV
attr source ContentManager_PieceDownloaded
attr title "Pieces Downloaded, vector"
919	106425 408 3575202 71400517 36010.456516914708 36129.754530668295 12 0 11 66 506
vector 921  BasicTopology.peer[11].bitTorrentApp.bitTorrentClient.contentManager_26  TotalBytesUploaded:vector  ETV
attr source ContentManager_TotalBytesUploaded
attr title "Total of Bytes Uploaded, vector"
attr unit B
921	110611 6072 3594844 67840700 36010.534844160201 36121.85769366735 154 32768 5046272 391086080 1.3199561929523e+15
vector 856  BasicTopology.peer[3].bitTorrentApp.bitTorrentClient.contentManager_26  TotalBytesDownloaded:vector  ETV
attr source ContentManager_TotalBytesDownloaded
attr title "Total of Bytes Downloaded, vector"
attr unit B
856	49169 3790 3717640 69441323 36010.757863549241 36125.808022963406 96 32768 3145728 152567808 3.2162433099366e+14
vector 904  BasicTopology.peer[9].bitTorrentApp.bitTorrentClient.contentManager_26  TotalBytesDownloaded:vector  ETV
attr source ContentManager_TotalBytesDownloaded
attr title "Total of Bytes Downloaded, vector"
attr unit B
904	91652 3784 3843995 72911851 36011.047322944665 36132.961153899608 96 32768 3145728 152567808 3.2162433099366e+14
vector 895  BasicTopology.peer[8].bitTorrentApp.bitTorrentClient.contentManager_26  PiecesDownloaded:vector  ETV
attr source ContentManager_PieceDownloaded
attr title "Pieces Downloaded, vector"
895	84276 404 4137471 70794711 36011.592887921676 36128.49737037422 12 0 11 66 506
vector 897  BasicTopology.peer[8].bitTorrentApp.bitTorrentClient.contentManager_26  TotalBytesUploaded:vector  ETV
attr source ContentManager_TotalBytesUploaded
attr title "Total of Bytes Uploaded, vector"
attr unit B
897	88453 2792 4157783 55077563 36011.616872752282 36095.590723918566 72 32768 2359296 86114304 1.3638668648448e+14
vector 840  BasicTopology.peer[1].bitTorrentApp.bitTorrentClient.contentManager_26  TotalBytesDownloaded:vector  ETV
attr source ContentManager_TotalBytesDownloaded
attr title "Total of Bytes Downloaded, vector"
attr unit B
840	31151 3782 4210351 61042172 36011.693830515425 36107.512107387318 96 32768 3145728 152567808 3.2162433099366e+14
vector 1016  BasicTopology.peer[23].bitTorrentApp.bitTorrentClient.contentManager_26  TotalBytesDownloaded:vector  ETV
attr source ContentManager_TotalBytesDownloaded
attr title "Total of Bytes Downloaded, vector"
attr unit B
1016	199231 3868 4319936 50520043 36011.940362144011 36086.883769096893 96 32768 3145728 152567808 3.2162433099366e+14
vector 903  BasicTopology.peer[9].bitTorrentApp.bitTorrentClient.contentManager_26  PiecesDownloaded:vector  ETV
attr source ContentManager_PieceDownloaded
attr title "Pieces Downloaded, vector"
903	91245 407 4834180 72911851 36012.85982141625 36132.961153899608 12 0 11 66 506
vector 905  BasicTopology.peer[9].bitTorrentApp.bitTorrentClient.contentManager_26  TotalBytesUploaded:vector  ETV
attr source ContentManager_TotalBytesUploaded
attr title "Total of Bytes Uploaded, vector"
attr unit B
905	95436 2496 4853336 43167719 36012.884092511332 36074.469686005325 64 32768 2097152 68157440 96035468738560
vector 1008  BasicTopology.peer[22].bitTorrentApp.bitTorrentClient.contentManager_26  TotalBytesDownloaded:vector  ETV
attr source ContentManager_TotalBytesDownloaded
attr title "Total of Bytes Downloaded, vector"
attr unit B
1008	187806 4250 4987529 47793656 36013.116045154176 36082.117052562244 105 32768 3440640 182353920 4.2026791862272e+14
vector 847  BasicTopology.peer[2].bitTorrentApp.bitTorrentClient.contentManager_26  PiecesDownloaded:vector  ETV
attr source ContentManager_PieceDownloaded
attr title "Pieces Downloaded, vector"
847	40650 409 5129797 61691542 36013.427173034328 36108.771060963053 12 0 11 66 506
vector 927  BasicTopology.peer[12].bitTorrentApp.bitTorrentClient.contentManager_26  PiecesDownloaded:vector  ETV
attr source ContentManager_PieceDownloaded
attr title "Pieces Downloaded, vector"
927	116683 407 5135516 76783479 36013.514852841264 36143.035867333225 12 0 11 66 506
vector 929  BasicTopology.peer[12].bitTorrentApp.bitTorrentClient.contentManager_26  TotalBytesUploaded:vector  ETV
attr source ContentManager_TotalBytesUploaded
attr title "Total of Bytes Uploaded, vector"
attr unit B
929	120865 3252 5152834 76814278 36013.549152011338 36143.095096393923 83 32768 2719744 114229248 2.083638959145e+14
vector 1015  BasicTopology.peer[23].bitTorrentApp.bitTorrentClient.contentManager_26  PiecesDownloaded:vector  ETV
attr source ContentManager_PieceDownloaded
attr title "Pieces Downloaded, vector"
1015	198813 418 5292157 50520043 36013.843517443638 36086.883769096893 12 0 11 66 506
vector 1017  BasicTopology.peer[23].bitTorrentApp.bitTorrentClient.contentManager_26  TotalBytesUploaded:vector  ETV
attr source ContentManager_TotalBytesUploaded
attr title "Total of Bytes Uploaded, vector"
attr unit B
1017	203099 5872 5311163 71480357 36013.878687083701 36129.986062793613 145 32768 4751360 346849280 1.1024590490829e+15
vector 1024  BasicTopology.peer[24].bitTorrentApp.bitTorrentClient.contentManager_26  TotalBytesDownloaded:vector  ETV
attr source ContentManager_TotalBytesDownloaded
attr title "Total of Bytes Downloaded, vector"
attr unit B
1024	209390 3882 5353837 79262664 36013.949888534429 36153.122955896192 96 32768 3145728 152567808 3.2162433099366e+14
vector 912  BasicTopology.peer[10].bitTorrentApp.bitTorrentClient.contentManager_26  TotalBytesDownloaded:vector  ETV
attr source ContentManager_TotalBytesDownloaded
attr title "Total of Bytes Downloaded, vector"
attr unit B
912	98341 3789 5784145 79237990 36014.83586558607 36152.543271839673 96 32768 3145728 152567808 3.2162433099366e+14
vector 944  BasicTopology.peer[14].bitTorrentApp.bitTorrentClient.contentManager_26  TotalBytesDownloaded:vector  ETV
attr source ContentManager_TotalBytesDownloaded
attr title "Total of Bytes Downloaded, vector"
attr unit B
944	134446 3784 6011155 75601249 36015.238743396988 36140.197984547772 96 32768 3145728 152567808 3.2162433099366e+14
vector 967  BasicTopology.peer[17].bitTorrentApp.bitTorrentClient.contentManager_26  PiecesDownloaded:vector  ETV
attr source ContentManager_PieceDownloaded
attr title "Pieces Downloaded, vector"
967	148342 407 6139065 80650586 36015.447053245141 36169.471146781186 12 0 11 66 506
vector 969  BasicTopology.peer[17].bitTorrentApp.bitTorrentClient.contentManager_26  TotalBytesUploaded:vector  ETV
attr source ContentManager_TotalBytesUploaded
attr title "Total of Bytes Uploaded, vector"
attr unit B
969	152538 1965 6201388 81028341 36015.535966918044 36177.615770994287 51 32768 1671168 43450368 48883170279424
vector 849  BasicTopology.peer[2].bitTorrentApp.bitTorrentClient.contentManager_26  TotalBytesUploaded:vector  ETV
attr source ContentManager_TotalBytesUploaded
attr title "Total of Bytes Uploaded, vector"
attr unit B
849	44842 3921 6369741 61742625 36015.821594930882 36108.852444430945 100 32768 3276800 165478400 3.633005461504e+14
vector 872  BasicTopology.peer[5].bitTorrentApp.bitTorrentClient.contentManager_26  TotalBytesDownloaded:vector  ETV
attr source ContentManager_TotalBytesDownloaded
attr title "Total of Bytes Downloaded, vector"
attr unit B
872	63553 3785 6389410 76684385 36015.849882985301 36142.80209841298 96 32768 3145728 152567808 3.2162433099366e+14
vector 952  BasicTopology.peer[15].bitTorrentApp.bitTorrentClient.contentManager_26  TotalBytesDownloaded:vector  ETV
attr source ContentManager_TotalBytesDownloaded
attr title "Total of Bytes Downloaded, vector"
attr unit B
952	139374 3832 6851454 77569655 36016.60070377698 36145.21292232199 97 32768 3178496 155746304 3.3172716781568e+14
vector 911  BasicTopology.peer[10].bitTorrentApp.bitTorrentClient.contentManager_26  PiecesDownloaded:vector  ETV
attr source ContentManager_PieceDownloaded
attr title "Pieces Downloaded, vector"
911	97932 409 7448524 79237990 36017.544576115238 36152.543271839673 12 0 11 66 506
vector 913  BasicTopology.peer[10].bitTorrentApp.bitTorrentClient.contentManager_26  TotalBytesUploaded:vector  ETV
attr source ContentManager_TotalBytesUploaded
attr title "Total of Bytes Uploaded, vector"
attr unit B
913	102130 4295 7507078 58180914 36017.66238896415 36101.581913908153 109 32768 3571712 196444160 4.6990700314624e+14
vector 1023  BasicTopology.peer[24].bitTorrentApp.bitTorrentClient.contentManager_26  PiecesDownloaded:vector  ETV
attr source ContentManager_PieceDownloaded
attr title "Pieces Downloaded, vector"
1023	208971 419 7662734 79262664 36017.898673331497 36153.122955896192 12 0 11 66 506
vector 871  BasicTopology.peer[5].bitTorrentApp.bitTorrentClient.contentManager_26  PiecesDownloaded:vector  ETV
attr source ContentManager_PieceDownloaded
attr title "Pieces Downloaded, vector"
871	63146 407 8027611 76684385 36018.553196871434 36142.80209841298 12 0 11 66 506
vector 984  BasicTopology.peer[19].bitTorrentApp.bitTorrentClient.contentManager_26  TotalBytesDownloaded:vector  ETV
attr source ContentManager_TotalBytesDownloaded
attr title "Total of Bytes Downloaded, vector"
attr unit B
984	160996 3788 8077330 75275998 36018.634407725197 36139.400849663554 96 32768 3145728 152567808 3.2162433099366e+14
vector 887  BasicTopology.peer[7].bitTorrentApp.bitTorrentClient.contentManager_26  PiecesDownloaded:vector  ETV
attr source ContentManager_PieceDownloaded
attr title "Pieces Downloaded, vector"
887	77181 408 8244006 77825696 36018.91197945037 36146.869656098944 12 0 11 66 506
vector 889  BasicTopology.peer[7].bitTorrentApp.bitTorrentClient.contentManager_26  TotalBytesUploaded:vector  ETV
attr source ContentManager_TotalBytesUploaded
attr title "Total of Bytes Uploaded, vector"
attr unit B
889	81496 2780 8293755 80539973 36018.970312899634 36169.061002779486 71 32768 2326528 83755008 1.3082040886886e+14
vector 983  BasicTopology.peer[19].bitTorrentApp.bitTorrentClient.contentManager_26  PiecesDownloaded:vector  ETV
attr source ContentManager_PieceDownloaded
attr title "Pieces Downloaded, vector"
983	160588 408 8304913 75275998 36018.98265311859 36139.400849663554 12 0 11 66 506
vector 960  BasicTopology.peer[16].bitTorrentApp.bitTorrentClient.contentManager_26  TotalBytesDownloaded:vector  ETV
attr source ContentManager_TotalBytesDownloaded
attr title "Total of Bytes Downloaded, vector"
attr unit B
960	143616 3796 8379151 75843122 36019.076558548818 36140.788608754359 96 32768 3145728 152567808 3.2162433099366e+14
vector 855  BasicTopology.peer[3].bitTorrentApp.bitTorrentClient.contentManager_26  PiecesDownloaded:vector  ETV
attr source ContentManager_PieceDownloaded
attr title "Pieces Downloaded, vector"
855	48763 406 9193597 69441323 36020.41644592006 36125.808022963406 12 0 11 66 506
vector 951  BasicTopology.peer[15].bitTorrentApp.bitTorrentClient.contentManager_26  PiecesDownloaded:vector  ETV
attr source ContentManager_PieceDownloaded
attr title "Pieces Downloaded, vector"
951	138967 407 10469420 77569655 36022.285644744213 36145.21292232199 12 0 11 66 506
vector 839  BasicTopology.peer[1].bitTorrentApp.bitTorrentClient.contentManager_26  PiecesDownloaded:vector  ETV
attr source ContentManager_PieceDownloaded
attr title "Pieces Downloaded, vector"
839	30743 408 10633238 61042172 36022.496842339663 36107.512107387318 12 0 11 66 506
vector 841  BasicTopology.peer[1].bitTorrentApp.bitTorrentClient.contentManager_26  TotalBytesUploaded:vector  ETV
attr source ContentManager_TotalBytesUploaded
attr title "Total of Bytes Uploaded, vector"
attr unit B
841	34933 5717 10715325 61091310 36022.620895703256 36107.613666520041 144 32768 4718592 342097920 1.0798836272333e+15
vector 992  BasicTopology.peer[20].bitTorrentApp.bitTorrentClient.contentManager_26  TotalBytesDownloaded:vector  ETV
attr source ContentManager_TotalBytesDownloaded
attr title "Total of Bytes Downloaded, vector"
attr unit B
992	165502 3801 10747998 79875443 36022.677196517802 36155.516902224251 96 32768 3145728 152567808 3.2162433099366e+14
vector 959  BasicTopology.peer[16].bitTorrentApp.bitTorrentClient.contentManager_26  PiecesDownloaded:vector  ETV
attr source ContentManager_PieceDownloaded
attr title "Pieces Downloaded, vector"
959	143206 410 10832385 75843122 36022.798141326996 36140.788608754359 12 0 11 66 506
vector 976  BasicTopology.peer[18].bitTorrentApp.bitTorrentClient.contentManager_26  TotalBytesDownloaded:vector  ETV
attr source ContentManager_TotalBytesDownloaded
attr title "Total of Bytes Downloaded, vector"
attr unit B
976	154910 3795 10841636 79140053 36022.809095677282 36152.327028712546 96 32768 3145728 152567808 3.2162433099366e+14
vector 857  BasicTopology.peer[3].bitTorrentApp.bitTorrentClient.contentManager_26  TotalBytesUploaded:vector  ETV
attr source ContentManager_TotalBytesUploaded
attr title "Total of Bytes Uploaded, vector"
attr unit B
857	52959 3796 11039384 35675729 36023.070421363 36063.115641249984 96 32768 3145728 152567808 3.2162433099366e+14
vector 1007  BasicTopology.peer[22].bitTorrentApp.bitTorrentClient.contentManager_26  PiecesDownloaded:vector  ETV
attr source ContentManager_PieceDownloaded
attr title "Pieces Downloaded, vector"
1007	187385 421 11621197 43536763 36024.002944532573 36075.061672499868 12 0 11 66 506
vector 1009  BasicTopology.peer[22].bitTorrentApp.bitTorrentClient.contentManager_26  TotalBytesUploaded:vector  ETV
attr source ContentManager_TotalBytesUploaded
attr title "Total of Bytes Uploaded, vector"
attr unit B
1009	192056 6757 11681045 66857548 36024.070414799302 36119.605398801159 166 32768 5439488 454197248 1.6520280318935e+15
vector 991  BasicTopology.peer[20].bitTorrentApp.bitTorrentClient.contentManager_26  PiecesDownloaded:vector  ETV
attr source ContentManager_PieceDownloaded
attr title "Pieces Downloaded, vector"
991	165093 409 11826073 79875443 36024.239183674906 36155.516902224251 12 0 11 66 506
vector 943  BasicTopology.peer[14].bitTorrentApp.bitTorrentClient.contentManager_26  PiecesDownloaded:vector  ETV
attr source ContentManager_PieceDownloaded
attr title "Pieces Downloaded, vector"
943	134037 409 11984095 75601249 36024.428743896517 36140.197984547772 12 0 11 66 506
vector 863  BasicTopology.peer[4].bitTorrentApp.bitTorrentClient.contentManager_26  PiecesDownloaded:vector  ETV
attr source ContentManager_PieceDownloaded
attr title "Pieces Downloaded, vector"
863	56755 408 12584563 75772435 36025.376548179956 36140.624552737992 12 0 11 66 506
vector 993  BasicTopology.peer[20].bitTorrentApp.bitTorrentClient.contentManager_26  TotalBytesUploaded:vector  ETV
attr source ContentManager_TotalBytesUploaded
attr title "Total of Bytes Uploaded, vector"
attr unit B
993	169303 3164 13581475 72523069 36026.986421441154 36132.072473353784 80 32768 2621440 106168320 1.8670222835712e+14
vector 985  BasicTopology.peer[19].bitTorrentApp.bitTorrentClient.contentManager_26  TotalBytesUploaded:vector  ETV
attr source ContentManager_TotalBytesUploaded
attr title "Total of Bytes Uploaded, vector"
attr unit B
985	164784 309 13714603 13753045 36027.157233210862 36027.209452677528 8 32768 262144 1179648 219043332096
vector 975  BasicTopology.peer[18].bitTorrentApp.bitTorrentClient.contentManager_26  PiecesDownloaded:vector  ETV
attr source ContentManager_PieceDownloaded
attr title "Pieces Downloaded, vector"
975	154503 407 15032303 79140053 36029.357074214953 36152.327028712546 12 0 11 66 506
vector 945  BasicTopology.peer[14].bitTorrentApp.bitTorrentClient.contentManager_26  TotalBytesUploaded:vector  ETV
attr source ContentManager_TotalBytesUploaded
attr title "Total of Bytes Uploaded, vector"
attr unit B
945	138230 737 15890771 76755217 36030.57296370137 36142.971064613514 19 32768 622592 6225920 2652142305280
vector 1025  BasicTopology.peer[24].bitTorrentApp.bitTorrentClient.contentManager_26  TotalBytesUploaded:vector  ETV
attr source ContentManager_TotalBytesUploaded
attr title "Total of Bytes Uploaded, vector"
attr unit B
1025	213272 3853 18702133 78276015 36035.448625144231 36149.478660023604 95 32768 3112960 149422080 3.1172872634368e+14
vector 961  BasicTopology.peer[16].bitTorrentApp.bitTorrentClient.contentManager_26  TotalBytesUploaded:vector  ETV
attr source ContentManager_TotalBytesUploaded
attr title "Total of Bytes Uploaded, vector"
attr unit B
961	147412 930 19631127 22784732 36037.062280824732 36042.527437940283 24 32768 786432 9830400 5261334937600
vector 865  BasicTopology.peer[4].bitTorrentApp.bitTorrentClient.contentManager_26  TotalBytesUploaded:vector  ETV
attr source ContentManager_TotalBytesUploaded
attr title "Total of Bytes Uploaded, vector"
attr unit B