file 220341 1593887687                                          
version 2
run Test-19-20200526-12:16:00-5336
attr configname Test
attr datetime 20200526-12:16:00
attr experiment "\"Simulation Test\""
attr inifile BasicConfig.ini
attr iterationvars ""
attr iterationvars2 $repetition=19
attr measurement "\"Peers: $peers, Rate: $rate\""
attr network BasicTopology
attr processid 5336
attr repetition 19
attr replication #19
attr resultdir results
attr runnumber 19
attr seedset 19
vector 3  BasicTopology.peer[1].bitTorrentApp.bitTorrentClient  DownloadComplete_Test:vector  ETV
attr source BitTorrentClient_DownloadComplete_Test
attr title "Descargas completas (prueba), vector"
3	20589 63 85 65215445 36001 36121.352677845457 2 36001 36121.352677845 72122.352677845 2600824120.2773
vector 5  BasicTopology.peer[2].bitTorrentApp.bitTorrentClient  DownloadComplete_Test:vector  ETV
attr source BitTorrentClient_DownloadComplete_Test
attr title "Descargas completas (prueba), vector"
5	20652 61 86 45625309 36001 36082.666756800229 2 36001 36082.6667568 72083.6667568 2598030841.2823
vector 7  BasicTopology.peer[3].bitTorrentApp.bitTorrentClient  DownloadComplete_Test:vector  ETV
attr source BitTorrentClient_DownloadComplete_Test
attr title "Descargas completas (prueba), vector"
7	20713 63 87 53351904 36001 36097.317862450804 2 36001 36097.317862451 72098.317862451 2599088357.8628
vector 9  BasicTopology.peer[4].bitTorrentApp.bitTorrentClient  DownloadComplete_Test:vector  ETV
attr source BitTorrentClient_DownloadComplete_Test
attr title "Descargas completas (prueba), vector"
9	20776 63 88 81057739 36001 36168.463148068471 2 36001 36168.463148068 72169.463148068 2604229727.4932
vector 11  BasicTopology.peer[5].bitTorrentApp.bitTorrentClient  DownloadComplete_Test:vector  ETV
attr source BitTorrentClient_DownloadComplete_Test
attr title "Descargas completas (prueba), vector"
11	20839 65 89 62747339 36001 36116.411162550538 2 36001 36116.411162551 72117.411162551 2600467156.2624
vector 13  BasicTopology.peer[6].bitTorrentApp.bitTorrentClient  DownloadComplete_Test:vector  ETV
attr source BitTorrentClient_DownloadComplete_Test
attr title "Descargas completas (prueba), vector"
13	20904 65 90 74868268 36001 36142.775934003284 2 36001 36142.775934003 72143.775934003 2602372253.2155
vector 15  BasicTopology.peer[7].bitTorrentApp.bitTorrentClient  DownloadComplete_Test:vector  ETV
attr source BitTorrentClient_DownloadComplete_Test
attr title "Descargas completas (prueba), vector"
15	20969 64 91 71430043 36001 36134.75583768679 2 36001 36134.755837687 72135.755837687 2601792580.4493
vector 17  BasicTopology.peer[8].bitTorrentApp.bitTorrentClient  DownloadComplete_Test:vector  ETV
attr source BitTorrentClient_DownloadComplete_Test
attr title "Descargas completas (prueba), vector"
17	21033 65 92 77251178 36001 36150.286035212086 2 36001 36150.286035212 72151.286035212 2602915181.4276
vector 19  BasicTopology.peer[9].bitTorrentApp.bitTorrentClient  DownloadComplete_Test:vector  ETV
attr source BitTorrentClient_DownloadComplete_Test
attr title "Descargas completas (prueba), vector"
19	21098 65 93 81761561 36001 36305.233377370691 2 36001 36305.233377371 72306.233377371 2614141971.5854
vector 21  BasicTopology.peer[10].bitTorrentApp.bitTorrentClient  DownloadComplete_Test:vector  ETV
attr source BitTorrentClient_DownloadComplete_Test
attr title "Descargas completas (prueba), vector"
21	21163 65 94 27699835 36001 36053.077751173713 2 36001 36053.077751174 72054.077751174 2595896416.3322
vector 23  BasicTopology.peer[11].bitTorrentApp.bitTorrentClient  DownloadComplete_Test:vector  ETV
attr source BitTorrentClient_DownloadComplete_Test
attr title "Descargas completas (prueba), vector"
23	21228 65 95 66562170 36001 36124.046682022125 2 36001 36124.046682022 72125.046682022 2601018749.6849
vector 25  BasicTopology.peer[12].bitTorrentApp.bitTorrentClient  DownloadComplete_Test:vector  ETV
attr source BitTorrentClient_DownloadComplete_Test
attr title "Descargas completas (prueba), vector"
25	21293 64 96 68471257 36001 36128.20346312391 2 36001 36128.203463124 72129.203463124 2601319086.4729
vector 27  BasicTopology.peer[13].bitTorrentApp.bitTorrentClient  DownloadComplete_Test:vector  ETV
attr source BitTorrentClient_DownloadComplete_Test
attr title "Descargas completas (prueba), vector"
27	21357 65 97 69523432 36001 36130.402059532621 2 36001 36130.402059533 72131.402059533 2601477953.9835
vector 29  BasicTopology.peer[14].bitTorrentApp.bitTorrentClient  DownloadComplete_Test:vector  ETV
attr source BitTorrentClient_DownloadComplete_Test
attr title "Descargas completas (prueba), vector"
29	21422 65 98 72618879 36001 36137.433294875211 2 36001 36137.433294875 72138.433294875 2601986086.1415
vector 31  BasicTopology.peer[15].bitTorrentApp.bitTorrentClient  DownloadComplete_Test:vector  ETV
attr source BitTorrentClient_DownloadComplete_Test
attr title "Descargas completas (prueba), vector"
31	21487 65 99 80315162 36001 36164.604537785679 2 36001 36164.604537786 72165.604537786 2603950622.3745
vector 33  BasicTopology.peer[16].bitTorrentApp.bitTorrentClient  DownloadComplete_Test:vector  ETV
attr source BitTorrentClient_DownloadComplete_Test
attr title "Descargas completas (prueba), vector"
33	21552 66 100 76523465 36001 36146.797298974179 2 36001 36146.797298974 72147.797298974 2602662955.9731
vector 35  BasicTopology.peer[17].bitTorrentApp.bitTorrentClient  DownloadComplete_Test:vector  ETV
attr source BitTorrentClient_DownloadComplete_Test
attr title "Descargas completas (prueba), vector"
35	21618 66 101 75197807 36001 36143.768468062855 2 36001 36143.768468063 72144.768468063 2602444000.0729
vector 37  BasicTopology.peer[18].bitTorrentApp.bitTorrentClient  DownloadComplete_Test:vector  ETV
attr source BitTorrentClient_DownloadComplete_Test
attr title "Descargas completas (prueba), vector"
37	21684 65 102 78055831 36001 36153.64460953199 2 36001 36153.644609532 72154.644609532 2603158019.5523
vector 39  BasicTopology.peer[19].bitTorrentApp.bitTorrentClient  DownloadComplete_Test:vector  ETV
attr source BitTorrentClient_DownloadComplete_Test
attr title "Descargas completas (prueba), vector"
39	21749 66 103 79835577 36001 36161.382766115462 2 36001 36161.382766115 72162.382766115 2603717604.5575
vector 41  BasicTopology.peer[20].bitTorrentApp.bitTorrentClient  DownloadComplete_Test:vector  ETV
attr source BitTorrentClient_DownloadComplete_Test
attr title "Descargas completas (prueba), vector"
41	21815 65 104 61619948 36001 36113.988682870031 2 36001 36113.98868287 72114.98868287 2600292179.5865
vector 43  BasicTopology.peer[21].bitTorrentApp.bitTorrentClient  DownloadComplete_Test:vector  ETV
attr source BitTorrentClient_DownloadComplete_Test
attr title "Descargas completas (prueba), vector"
43	21880 66 105 78802936 36001 36155.974954355216 2 36001 36155.974954355 72156.974954355 2603326525.8999
vector 45  BasicTopology.peer[22].bitTorrentApp.bitTorrentClient  DownloadComplete_Test:vector  ETV
attr source BitTorrentClient_DownloadComplete_Test
attr title "Descargas completas (prueba), vector"
45	21946 66 106 63290094 36001 36117.669453862438 2 36001 36117.669453862 72118.669453862 2600558047.7784
vector 47  BasicTopology.peer[23].bitTorrentApp.bitTorrentClient  DownloadComplete_Test:vector  ETV
attr source BitTorrentClient_DownloadComplete_Test
attr title "Descargas completas (prueba), vector"
47	22012 66 107 64594111 36001 36120.181101676067 2 36001 36120.181101676 72121.181101676 2600739483.8179
vector 49  BasicTopology.peer[24].bitTorrentApp.bitTorrentClient  DownloadComplete_Test:vector  ETV
attr source BitTorrentClient_DownloadComplete_Test
attr title "Descargas completas (prueba), vector"
49	22078 66 108 68578995 36001 36128.386719402046 2 36001 36128.386719402 72129.386719402 2601332327.9467
vector 833  BasicTopology.peer[0].bitTorrentApp.bitTorrentClient.contentManager_26  TotalBytesUploaded:vector  ETV
attr source ContentManager_TotalBytesUploaded
attr title "Total of Bytes Uploaded, vector"
attr unit B
833	22144 10518 393972 65878095 36002.6471253832 36122.657913517874 269 32768 8814592 1189969920 7.0057305361613e+15
vector 840  BasicTopology.peer[1].bitTorrentApp.bitTorrentClient.contentManager_26  TotalBytesDownloaded:vector  ETV
attr source ContentManager_TotalBytesDownloaded
attr title "Total of Bytes Downloaded, vector"
attr unit B
840	33070 3768 498915 65215445 36003.740906626395 36121.352677845457 96 32768 3145728 152567808 3.2162433099366e+14
vector 928  BasicTopology.peer[12].bitTorrentApp.bitTorrentClient.contentManager_26  TotalBytesDownloaded:vector  ETV
attr source ContentManager_TotalBytesDownloaded
attr title "Total of Bytes Downloaded, vector"
attr unit B
928	135387 4171 757206 68471257 36004.493290032458 36128.20346312391 106 32768 3473408 185827328 4.3233248175718e+14
vector 839  BasicTopology.peer[1].bitTorrentApp.bitTorrentClient.contentManager_26  PiecesDownloaded:vector  ETV
attr source ContentManager_PieceDownloaded
attr title "Pieces Downloaded, vector"
839	32662 408 1081740 65215445 36005.308932801295 36121.352677845457 12 0 11 66 506
vector 841  BasicTopology.peer[1].bitTorrentApp.bitTorrentClient.contentManager_26  TotalBytesUploaded:vector  ETV
attr source ContentManager_TotalBytesUploaded
attr title "Total of Bytes Uploaded, vector"
attr unit B
841	36838 9319 1099139 75804334 36005.345910821399 36145.092733323974 237 32768 7766016 924155904 4.7947672715264e+15
vector 880  BasicTopology.peer[6].bitTorrentApp.bitTorrentClient.contentManager_26  TotalBytesDownloaded:vector  ETV
attr source ContentManager_TotalBytesDownloaded
attr title "Total of Bytes Downloaded, vector"
attr unit B
880	91085 3778 1168389 74868268 36005.515964946739 36142.775934003284 96 32768 3145728 152567808 3.2162433099366e+14
vector 912  BasicTopology.peer[10].bitTorrentApp.bitTorrentClient.contentManager_26  TotalBytesDownloaded:vector  ETV
attr source ContentManager_TotalBytesDownloaded
attr title "Total of Bytes Downloaded, vector"
attr unit B
912	117724 3746 1189817 27699835 36005.56513745118 36053.077751173713 96 32768 3145728 152567808 3.2162433099366e+14
vector 864  BasicTopology.peer[4].bitTorrentApp.bitTorrentClient.contentManager_26  TotalBytesDownloaded:vector  ETV
attr source ContentManager_TotalBytesDownloaded
attr title "Total of Bytes Downloaded, vector"
attr unit B
864	71057 3777 1387015 81057739 36006.26432465149 36168.463148068471 96 32768 3145728 152567808 3.2162433099366e+14
vector 848  BasicTopology.peer[2].bitTorrentApp.bitTorrentClient.contentManager_26  TotalBytesDownloaded:vector  ETV
attr source ContentManager_TotalBytesDownloaded
attr title "Total of Bytes Downloaded, vector"
attr unit B
848	46566 3781 1752694 45625309 36007.112550302303 36082.666756800229 96 32768 3145728 152567808 3.2162433099366e+14
vector 856  BasicTopology.peer[3].bitTorrentApp.bitTorrentClient.contentManager_26  TotalBytesDownloaded:vector  ETV
attr source ContentManager_TotalBytesDownloaded
attr title "Total of Bytes Downloaded, vector"
attr unit B
856	60477 3775 2054717 53351904 36008.298988384768 36097.317862450804 96 32768 3145728 152567808 3.2162433099366e+14
vector 847  BasicTopology.peer[2].bitTorrentApp.bitTorrentClient.contentManager_26  PiecesDownloaded:vector  ETV
attr source ContentManager_PieceDownloaded
attr title "Pieces Downloaded, vector"
847	46157 409 2421693 45625309 36009.502098374996 36082.666756800229 12 0 11 66 506
vector 849  BasicTopology.peer[2].bitTorrentApp.bitTorrentClient.contentManager_26  TotalBytesUploaded:vector  ETV
attr source ContentManager_TotalBytesUploaded
attr title "Total of Bytes Uploaded, vector"
attr unit B
849	50347 9724 2463500 58805583 36009.582258167374 36108.087138469024 245 32768 8028160 987463680 5.2957966814413e+15
vector 976  BasicTopology.peer[18].bitTorrentApp.bitTorrentClient.contentManager_26  TotalBytesDownloaded:vector  ETV
attr source ContentManager_TotalBytesDownloaded
attr title "Total of Bytes Downloaded, vector"
attr unit B
976	173024 3797 2556569 78055831 36009.780909864648 36153.64460953199 96 32768 3145728 152567808 3.2162433099366e+14
vector 911  BasicTopology.peer[10].bitTorrentApp.bitTorrentClient.contentManager_26  PiecesDownloaded:vector  ETV
attr source ContentManager_PieceDownloaded
attr title "Pieces Downloaded, vector"
911	117319 405 2823206 27699835 36010.239993346744 36053.077751173713 12 0 11 66 506
vector 913  BasicTopology.peer[10].bitTorrentApp.bitTorrentClient.contentManager_26  TotalBytesUploaded:vector  ETV
attr source ContentManager_TotalBytesUploaded
attr title "Total of Bytes Uploaded, vector"
attr unit B
913	121470 6483 2852150 74765999 36010.296683232879 36142.593682191665 165 32768 5406720 448757760 1.6224400021914e+15
vector 992  BasicTopology.peer[20].bitTorrentApp.bitTorrentClient.contentManager_26  TotalBytesDownloaded:vector  ETV
attr source ContentManager_TotalBytesDownloaded
attr title "Total of Bytes Downloaded, vector"
attr unit B
992	182372 3775 3002030 61619948 36010.662714725907 36113.988682870031 96 32768 3145728 152567808 3.2162433099366e+14
vector 872  BasicTopology.peer[5].bitTorrentApp.bitTorrentClient.contentManager_26  TotalBytesDownloaded:vector  ETV
attr source ContentManager_TotalBytesDownloaded
attr title "Total of Bytes Downloaded, vector"
attr unit B
872	82181 3780 3272053 62747339 36011.344959915861 36116.411162550538 96 32768 3145728 152567808 3.2162433099366e+14
vector 944  BasicTopology.peer[14].bitTorrentApp.bitTorrentClient.contentManager_26  TotalBytesDownloaded:vector  ETV
attr source ContentManager_TotalBytesDownloaded
attr title "Total of Bytes Downloaded, vector"
attr unit B
944	152582 4105 3386708 72618879 36011.640896412889 36137.433294875211 104 32768 3407872 178913280 4.0842991501312e+14
vector 879  BasicTopology.peer[6].bitTorrentApp.bitTorrentClient.contentManager_26  PiecesDownloaded:vector  ETV
attr source ContentManager_PieceDownloaded
attr title "Pieces Downloaded, vector"
879	90678 407 3447702 74868268 36011.784605368524 36142.775934003284 12 0 11 66 506
vector 881  BasicTopology.peer[6].bitTorrentApp.bitTorrentClient.contentManager_26  TotalBytesUploaded:vector  ETV
attr source ContentManager_TotalBytesUploaded
attr title "Total of Bytes Uploaded, vector"
attr unit B
881	94863 4059 3474130 43516877 36011.828568466257 36079.152593800542 104 32768 3407872 178913280 4.0842991501312e+14
vector 991  BasicTopology.peer[20].bitTorrentApp.bitTorrentClient.contentManager_26  PiecesDownloaded:vector  ETV
attr source ContentManager_PieceDownloaded
attr title "Pieces Downloaded, vector"
991	181966 406 3611108 61619948 36012.141214263753 36113.988682870031 12 0 11 66 506
vector 993  BasicTopology.peer[20].bitTorrentApp.bitTorrentClient.contentManager_26  TotalBytesUploaded:vector  ETV
attr source ContentManager_TotalBytesUploaded
attr title "Total of Bytes Uploaded, vector"
attr unit B
993	186147 4070 3636919 45824427 36012.189053609355 36082.976850255627 104 32768 3407872 178913280 4.0842991501312e+14
vector 1016  BasicTopology.peer[23].bitTorrentApp.bitTorrentClient.contentManager_26  TotalBytesDownloaded:vector  ETV
attr source ContentManager_TotalBytesDownloaded
attr title "Total of Bytes Downloaded, vector"
attr unit B
1016	207683 3874 3673764 64594111 36012.323940266217 36120.181101676067 96 32768 3145728 152567808 3.2162433099366e+14
vector 927  BasicTopology.peer[12].bitTorrentApp.bitTorrentClient.contentManager_26  PiecesDownloaded:vector  ETV
attr source ContentManager_PieceDownloaded
attr title "Pieces Downloaded, vector"
927	134980 407 3731608 68471257 36012.445400644234 36128.20346312391 12 0 11 66 506
vector 929  BasicTopology.peer[12].bitTorrentApp.bitTorrentClient.contentManager_26  TotalBytesUploaded:vector  ETV
attr source ContentManager_TotalBytesUploaded
attr title "Total of Bytes Uploaded, vector"
attr unit B
929	139558 5254 3757417 69178490 36012.490390039474 36129.627320218389 134 32768 4390912 296386560 8.7084220022784e+14
vector 888  BasicTopology.peer[7].bitTorrentApp.bitTorrentClient.contentManager_26  TotalBytesDownloaded:vector  ETV
attr source ContentManager_TotalBytesDownloaded
attr title "Total of Bytes Downloaded, vector"
attr unit B
888	99327 3786 3951473 71430043 36012.935098184078 36134.75583768679 96 32768 3145728 152567808 3.2162433099366e+14
vector 904  BasicTopology.peer[9].bitTorrentApp.bitTorrentClient.contentManager_26  TotalBytesDownloaded:vector  ETV
attr source ContentManager_TotalBytesDownloaded
attr title "Total of Bytes Downloaded, vector"
attr unit B
904	111780 3788 4117380 81761561 36013.157210433433 36305.233377370691 96 32768 3145728 152567808 3.2162433099366e+14
vector 920  BasicTopology.peer[11].bitTorrentApp.bitTorrentClient.contentManager_26  TotalBytesDownloaded:vector  ETV
attr source ContentManager_TotalBytesDownloaded
attr title "Total of Bytes Downloaded, vector"
attr unit B
920	128360 3786 4220711 66562170 36013.307254011209 36124.046682022125 96 32768 3145728 152567808 3.2162433099366e+14
vector 960  BasicTopology.peer[16].bitTorrentApp.bitTorrentClient.contentManager_26  TotalBytesDownloaded:vector  ETV
attr source ContentManager_TotalBytesDownloaded
attr title "Total of Bytes Downloaded, vector"
attr unit B
960	161912 3793 4883385 76523465 36014.650514859977 36146.797298974179 96 32768 3145728 152567808 3.2162433099366e+14
vector 887  BasicTopology.peer[7].bitTorrentApp.bitTorrentClient.contentManager_26  PiecesDownloaded:vector  ETV
attr source ContentManager_PieceDownloaded
attr title "Pieces Downloaded, vector"
887	98922 405 5243726 71430043 36015.408478739724 36134.75583768679 12 0 11 66 506
vector 889  BasicTopology.peer[7].bitTorrentApp.bitTorrentClient.contentManager_26  TotalBytesUploaded:vector  ETV
attr source ContentManager_TotalBytesUploaded
attr title "Total of Bytes Uploaded, vector"
attr unit B
889	103113 3171 5263369 71593466 36015.437401726376 36135.222819515062 81 32768 2654208 108822528 1.9374704846438e+14
vector 919  BasicTopology.peer[11].bitTorrentApp.bitTorrentClient.contentManager_26  PiecesDownloaded:vector  ETV
attr source ContentManager_PieceDownloaded
attr title "Pieces Downloaded, vector"
919	127953 407 5462787 66562170 36015.736656292705 36124.046682022125 12 0 11 66 506
vector 921  BasicTopology.peer[11].bitTorrentApp.bitTorrentClient.contentManager_26  TotalBytesUploaded:vector  ETV
attr source ContentManager_TotalBytesUploaded
attr title "Total of Bytes Uploaded, vector"
attr unit B
921	132146 2834 5514380 66599445 36015.801368982372 36124.123047202644 72 32768 2359296 86114304 1.3638668648448e+14
vector 903  BasicTopology.peer[9].bitTorrentApp.bitTorrentClient.contentManager_26  PiecesDownloaded:vector  ETV
attr source ContentManager_PieceDownloaded
attr title "Pieces Downloaded, vector"
903	111371 409 5538355 81761561 36015.835801762433 36305.233377370691 12 0 11 66 506
vector 984  BasicTopology.peer[19].bitTorrentApp.bitTorrentClient.contentManager_26  TotalBytesDownloaded:vector  ETV
attr source ContentManager_TotalBytesDownloaded
attr title "Total of Bytes Downloaded, vector"
attr unit B
984	177229 4509 5980214 79835577 36016.644310379292 36161.382766115462 114 32768 3735552 214794240 5.3726282776576e+14
vector 855  BasicTopology.peer[3].bitTorrentApp.bitTorrentClient.contentManager_26  PiecesDownloaded:vector  ETV
attr source ContentManager_PieceDownloaded
attr title "Pieces Downloaded, vector"
855	60071 406 6014976 53351904 36016.696929995076 36097.317862450804 12 0 11 66 506
vector 896  BasicTopology.peer[8].bitTorrentApp.bitTorrentClient.contentManager_26  TotalBytesDownloaded:vector  ETV
attr source ContentManager_TotalBytesDownloaded
attr title "Total of Bytes Downloaded, vector"
attr unit B
896	106693 3787 6027139 77251178 36016.71174159256 36150.286035212086 96 32768 3145728 152567808 3.2162433099366e+14
vector 857  BasicTopology.peer[3].bitTorrentApp.bitTorrentClient.contentManager_26  TotalBytesUploaded:vector  ETV
attr source ContentManager_TotalBytesUploaded
attr title "Total of Bytes Uploaded, vector"
attr unit B
857	64252 6396 6039162 60319105 36016.73210312641 36111.273130381042 162 32768 5308416 432635904 1.5357997744128e+15
vector 1008  BasicTopology.peer[22].bitTorrentApp.bitTorrentClient.contentManager_26  TotalBytesDownloaded:vector  ETV
attr source ContentManager_TotalBytesDownloaded
attr title "Total of Bytes Downloaded, vector"
attr unit B
1008	200425 4051 6127965 63290094 36016.896220509195 36117.669453862438 100 32768 3276800 165478400 3.633005461504e+14
vector 1024  BasicTopology.peer[24].bitTorrentApp.bitTorrentClient.contentManager_26  TotalBytesDownloaded:vector  ETV
attr source ContentManager_TotalBytesDownloaded
attr title "Total of Bytes Downloaded, vector"
attr unit B
1024	213546 3884 6670329 68578995 36017.892787104334 36128.386719402046 96 32768 3145728 152567808 3.2162433099366e+14
vector 952  BasicTopology.peer[15].bitTorrentApp.bitTorrentClient.contentManager_26  TotalBytesDownloaded:vector  ETV
attr source ContentManager_TotalBytesDownloaded
attr title "Total of Bytes Downloaded, vector"
attr unit B
952	157714 3790 6837135 80315162 36018.116149415169 36164.604537785679 96 32768 3145728 152567808 3.2162433099366e+14
vector 905  BasicTopology.peer[9].bitTorrentApp.bitTorrentClient.contentManager_26  TotalBytesUploaded:vector  ETV
attr source ContentManager_TotalBytesUploaded
attr title "Total of Bytes Uploaded, vector"
attr unit B
905	115568 1751 7002567 73413724 36018.47648530534 36139.068621103064 45 32768 1474560 33914880 33710124564480
vector 968  BasicTopology.peer[17].bitTorrentApp.bitTorrentClient.contentManager_26  TotalBytesDownloaded:vector  ETV
attr source ContentManager_TotalBytesDownloaded
attr title "Total of Bytes Downloaded, vector"
attr unit B
968	166383 4109 7044745 75197807 36018.540088312502 36143.768468062855 104 32768 3407872 178913280 4.0842991501312e+14
vector 943  BasicTopology.peer[14].bitTorrentApp.bitTorrentClient.contentManager_26  PiecesDownloaded:vector  ETV
attr source ContentManager_PieceDownloaded
attr title "Pieces Downloaded, vector"
943	152175 407 7241008 72618879 36018.835135792905 36137.433294875211 12 0 11 66 506
vector 967  BasicTopology.peer[17].bitTorrentApp.bitTorrentClient.contentManager_26  PiecesDownloaded:vector  ETV
attr source ContentManager_PieceDownloaded
attr title "Pieces Downloaded, vector"
967	165975 408 7324567 75197807 36018.972275576579 36143.768468062855 12 0 11 66 506
vector 895  BasicTopology.peer[8].bitTorrentApp.bitTorrentClient.contentManager_26  PiecesDownloaded:vector  ETV
attr source ContentManager_PieceDownloaded
attr title "Pieces Downloaded, vector"
895	106284 409 7409765 77251178 36019.111707957737 36150.286035212086 12 0 11 66 506
vector 863  BasicTopology.peer[4].bitTorrentApp.bitTorrentClient.contentManager_26  PiecesDownloaded:vector  ETV
attr source ContentManager_PieceDownloaded
attr title "Pieces Downloaded, vector"
863	70648 409 7555974 81057739 36019.404956614991 36168.463148068471 12 0 11 66 506
vector 865  BasicTopology.peer[4].bitTorrentApp.bitTorrentClient.contentManager_26  TotalBytesUploaded:vector  ETV
attr source ContentManager_TotalBytesUploaded
attr title "Total of Bytes Uploaded, vector"
attr unit B
865	74834 6939 7581260 52677180 36019.447166509931 36096.104622181132 176 32768 5767168 510394368 1.9679282452234e+15
vector 1015  BasicTopology.peer[23].bitTorrentApp.bitTorrentClient.contentManager_26  PiecesDownloaded:vector  ETV
attr source ContentManager_PieceDownloaded
attr title "Pieces Downloaded, vector"
1015	207264 419 7970009 64594111 36020.159457212331 36120.181101676067 12 0 11 66 506
vector 1017  BasicTopology.peer[23].bitTorrentApp.bitTorrentClient.contentManager_26  TotalBytesUploaded:vector  ETV
attr source ContentManager_TotalBytesUploaded
attr title "Total of Bytes Uploaded, vector"
attr unit B
1017	211557 1571 7987893 23240491 36020.197093464221 36045.588086585204 40 32768 1310720 26869760 23772643983360
vector 871  BasicTopology.peer[5].bitTorrentApp.bitTorrentClient.contentManager_26  PiecesDownloaded:vector  ETV
attr source ContentManager_PieceDownloaded
attr title "Pieces Downloaded, vector"
871	81773 408 8071933 62747339 36020.399787393084 36116.411162550538 12 0 11 66 506
vector 951  BasicTopology.peer[15].bitTorrentApp.bitTorrentClient.contentManager_26  PiecesDownloaded:vector  ETV
attr source ContentManager_PieceDownloaded
attr title "Pieces Downloaded, vector"
951	157305 409 8242865 80315162 36020.794294244424 36164.604537785679 12 0 11 66 506
vector 983  BasicTopology.peer[19].bitTorrentApp.bitTorrentClient.contentManager_26  PiecesDownloaded:vector  ETV
attr source ContentManager_PieceDownloaded
attr title "Pieces Downloaded, vector"
983	176821 408 8590111 79835577 36021.401114126846 36161.382766115462 12 0 11 66 506
vector 1000  BasicTopology.peer[21].bitTorrentApp.bitTorrentClient.contentManager_26  TotalBytesDownloaded:vector  ETV
attr source ContentManager_TotalBytesDownloaded
attr title "Total of Bytes Downloaded, vector"
attr unit B
1000	190625 3893 9075792 78802936 36022.227676648578 36155.974954355216 96 32768 3145728 152567808 3.2162433099366e+14
vector 873  BasicTopology.peer[5].bitTorrentApp.bitTorrentClient.contentManager_26  TotalBytesUploaded:vector  ETV
attr source ContentManager_TotalBytesUploaded
attr title "Total of Bytes Uploaded, vector"
attr unit B
873	85961 4717 10294141 45383372 36024.246750625873 36082.233931077695 119 32768 3899392 233963520 6.1076582432768e+14
vector 1023  BasicTopology.peer[24].bitTorrentApp.bitTorrentClient.contentManager_26  PiecesDownloaded:vector  ETV
attr source ContentManager_PieceDownloaded
attr title "Pieces Downloaded, vector"
1023	213128 418 11936901 68578995 36026.862942442901 36128.386719402046 12 0 11 66 506
vector 1025  BasicTopology.peer[24].bitTorrentApp.bitTorrentClient.contentManager_26  TotalBytesUploaded:vector  ETV
attr source ContentManager_TotalBytesUploaded
attr title "Total of Bytes Uploaded, vector"
attr unit B
1025	217430 2911 13643957 40320881 36029.579231381694 36073.995209283602 72 32768 2359296 86114304 1.3638668648448e+14
vector 936  BasicTopology.peer[13].bitTorrentApp.bitTorrentClient.contentManager_26  TotalBytesDownloaded:vector  ETV
attr source ContentManager_TotalBytesDownloaded
attr title "Total of Bytes Downloaded, vector"
attr unit B
936	145218 3797 13752994 69523432 36029.731542089139 36130.402059532621 96 32768 3145728 152567808 3.2162433099366e+14
vector 999  BasicTopology.peer[21].bitTorrentApp.bitTorrentClient.contentManager_26  PiecesDownloaded:vector  ETV
attr source ContentManager_PieceDownloaded
attr title "Pieces Downloaded, vector"
999	190217 408 14997605 78802936 36031.794683384747 36155.974954355216 12 0 11 66 506
vector 1001  BasicTopology.peer[21].bitTorrentApp.bitTorrentClient.contentManager_26  TotalBytesUploaded:vector  ETV
attr source ContentManager_TotalBytesUploaded
attr title "Total of Bytes Uploaded, vector"
attr unit B
1001	194518 5485 15016657 81275286 36031.825814678941 36301.043240471685 135 32768 4423680 300810240 8.9041114497024e+14
vector 975  BasicTopology.peer[18].bitTorrentApp.bitTorrentClient.contentManager_26  PiecesDownloaded:vector  ETV
attr source ContentManager_PieceDownloaded
attr title "Pieces Downloaded, vector"
975	172615 409 15447769 78055831 36032.550948784744 36153.64460953199 12 0 11 66 506
vector 897  BasicTopology.peer[8].bitTorrentApp.bitTorrentClient.contentManager_26  TotalBytesUploaded:vector  ETV
attr source ContentManager_TotalBytesUploaded
attr title "Total of Bytes Uploaded, vector"
attr unit B
897	110480 891 15782630 77691664 36033.044612317676 36152.855896524223 23 32768 753664 9043968 4642859646976
vector 959  BasicTopology.peer[16].bitTorrentApp.bitTorrentClient.contentManager_26  PiecesDownloaded:vector  ETV
attr source ContentManager_PieceDownloaded
attr title "Pieces Downloaded, vector"
959	161504 408 16054387 76523465 36033.424510603348 36146.797298974179 12 0 11 66 506
vector 1007  BasicTopology.peer[22].bitTorrentApp.bitTorrentClient.contentManager_26  PiecesDownloaded:vector  ETV
attr source ContentManager_PieceDownloaded
attr title "Pieces Downloaded, vector"
1007	200003 422 16266421 63290094 36033.814721348286 36117.669453862438 12 0 11 66 506
vector 935  BasicTopology.peer[13].bitTorrentApp.bitTorrentClient.contentManager_26  PiecesDownloaded:vector  ETV
attr source ContentManager_PieceDownloaded
attr title "Pieces Downloaded, vector"
935	144812 406 16635856 69523432 36034.487595821294 36130.402059532621 12 0 11 66 506
vector 937  BasicTopology.peer[13].bitTorrentApp.bitTorrentClient.contentManager_26  TotalBytesUploaded:vector  ETV
attr source ContentManager_TotalBytesUploaded
attr title "Total of Bytes Uploaded, vector"
attr unit B
937	149015 3160 20494641 71844546 36041.44703826104 36135.875232461546 80 32768 2621440 106168320 1.8670222835712e+14
vector 1009  BasicTopology.peer[22].bitTorrentApp.bitTorrentClient.contentManager_26  TotalBytesUploaded:vector  ETV
attr source ContentManager_TotalBytesUploaded
attr title "Total of Bytes Uploaded, vector"
attr unit B
1009	204476 2788 25990897 63324673 36050.005899892601 36117.758416226807 69 32768 2260992 79134720 1.2014634139648e+14
vector 969  BasicTopology.peer[17].bitTorrentApp.bitTorrentClient.contentManager_26  TotalBytesUploaded:vector  ETV
attr source ContentManager_TotalBytesUploaded
attr title "Total of Bytes Uploaded, vector"
attr unit B
969	170492 2123 29540111 41293142 36056.278958965883 36075.566723148673 54 32768 1769472 48660480 57933740113920
vector 945  BasicTopology.peer[14].bitTorrentApp.bitTorrentClient.contentManager_26  TotalBytesUploaded:vector  ETV
attr source ContentManager_TotalBytesUploaded
attr title "Total of Bytes Uploaded, vector"
attr unit B
945	156687 618 30746061 53168979 36058.323102509307 36096.995366044984 16 32768 524288 4456448 1606317768704
vector 961  BasicTopology.peer[16].bitTorrentApp.bitTorrentClient.contentManager_26  TotalBytesUploaded:vector  ETV
attr source ContentManager_TotalBytesUploaded