version 2
run Test-3-20200526-12:14:02-5173
attr configname Test
attr datetime 20200526-12:14:02
attr experiment "\"Simulation Test\""
attr inifile BasicConfig.ini
attr iterationvars ""
attr iterationvars2 $repetition=3
attr measurement "\"Peers: $peers, Rate: $rate\""
attr network BasicTopology
attr processid 5173
attr repetition 3
attr replication #3
attr resultdir results
attr runnumber 3
attr seedset 3

vector 3  BasicTopology.peer[1].bitTorrentApp.bitTorrentClient  DownloadComplete_Test:vector  ETV
attr source  BitTorrentClient_DownloadComplete_Test
attr title  "Descargas completas (prueba), vector"
vector 5  BasicTopology.peer[2].bitTorrentApp.bitTorrentClient  DownloadComplete_Test:vector  ETV
attr source  BitTorrentClient_DownloadComplete_Test
attr title  "Descargas completas (prueba), vector"
vector 7  BasicTopology.peer[3].bitTorrentApp.bitTorrentClient  DownloadComplete_Test:vector  ETV
attr source  BitTorrentClient_DownloadComplete_Test
attr title  "Descargas completas (prueba), vector"
vector 9  BasicTopology.peer[4].bitTorrentApp.bitTorrentClient  DownloadComplete_Test:vector  ETV
attr source  BitTorrentClient_DownloadComplete_Test
attr title  "Descargas completas (prueba), vector"
vector 11  BasicTopology.peer[5].bitTorrentApp.bitTorrentClient  DownloadComplete_Test:vector  ETV
attr source  BitTorrentClient_DownloadComplete_Test
attr title  "Descargas completas (prueba), vector"
vector 13  BasicTopology.peer[6].bitTorrentApp.bitTorrentClient  DownloadComplete_Test:vector  ETV
attr source  BitTorrentClient_DownloadComplete_Test
attr title  "Descargas completas (prueba), vector"
vector 15  BasicTopology.peer[7].bitTorrentApp.bitTorrentClient  DownloadComplete_Test:vector  ETV
attr source  BitTorrentClient_DownloadComplete_Test
attr title  "Descargas completas (prueba), vector"
vector 17  BasicTopology.peer[8].bitTorrentApp.bitTorrentClient  DownloadComplete_Test:vector  ETV
attr source  BitTorrentClient_DownloadComplete_Test
attr title  "Descargas completas (prueba), vector"
vector 19  BasicTopology.peer[9].bitTorrentApp.bitTorrentClient  DownloadComplete_Test:vector  ETV
attr source  BitTorrentClient_DownloadComplete_Test
attr title  "Descargas completas (prueba), vector"
vector 21  BasicTopology.peer[10].bitTorrentApp.bitTorrentClient  DownloadComplete_Test:vector  ETV
attr source  BitTorrentClient_DownloadComplete_Test
attr title  "Descargas completas (prueba), vector"
vector 23  BasicTopology.peer[11].bitTorrentApp.bitTorrentClient  DownloadComplete_Test:vector  ETV
attr source  BitTorrentClient_DownloadComplete_Test
attr title  "Descargas completas (prueba), vector"
vector 25  BasicTopology.peer[12].bitTorrentApp.bitTorrentClient  DownloadComplete_Test:vector  ETV
attr source  BitTorrentClient_DownloadComplete_Test
attr title  "Descargas completas (prueba), vector"
vector 27  BasicTopology.peer[13].bitTorrentApp.bitTorrentClient  DownloadComplete_Test:vector  ETV
attr source  BitTorrentClient_DownloadComplete_Test
attr title  "Descargas completas (prueba), vector"
vector 29  BasicTopology.peer[14].bitTorrentApp.bitTorrentClient  DownloadComplete_Test:vector  ETV
attr source  BitTorrentClient_DownloadComplete_Test
attr title  "Descargas completas (prueba), vector"
vector 31  BasicTopology.peer[15].bitTorrentApp.bitTorrentClient  DownloadComplete_Test:vector  ETV
attr source  BitTorrentClient_DownloadComplete_Test
attr title  "Descargas completas (prueba), vector"
vector 33  BasicTopology.peer[16].bitTorrentApp.bitTorrentClient  DownloadComplete_Test:vector  ETV
attr source  BitTorrentClient_DownloadComplete_Test
attr title  "Descargas completas (prueba), vector"
vector 35  BasicTopology.peer[17].bitTorrentApp.bitTorrentClient  DownloadComplete_Test:vector  ETV
attr source  BitTorrentClient_DownloadComplete_Test
attr title  "Descargas completas (prueba), vector"
vector 37  BasicTopology.peer[18].bitTorrentApp.bitTorrentClient  DownloadComplete_Test:vector  ETV
attr source  BitTorrentClient_DownloadComplete_Test
attr title  "Descargas completas (prueba), vector"
vector 39  BasicTopology.peer[19].bitTorrentApp.bitTorrentClient  DownloadComplete_Test:vector  ETV
attr source  BitTorrentClient_DownloadComplete_Test
attr title  "Descargas completas (prueba), vector"
vector 41  BasicTopology.peer[20].bitTorrentApp.bitTorrentClient  DownloadComplete_Test:vector  ETV
attr source  BitTorrentClient_DownloadComplete_Test
attr title  "Descargas completas (prueba), vector"
vector 43  BasicTopology.peer[21].bitTorrentApp.bitTorrentClient  DownloadComplete_Test:vector  ETV
attr source  BitTorrentClient_DownloadComplete_Test
attr title  "Descargas completas (prueba), vector"
vector 45  BasicTopology.peer[22].bitTorrentApp.bitTorrentClient  DownloadComplete_Test:vector  ETV
attr source  BitTorrentClient_DownloadComplete_Test
attr title  "Descargas completas (prueba), vector"
vector 47  BasicTopology.peer[23].bitTorrentApp.bitTorrentClient  DownloadComplete_Test:vector  ETV
attr source  BitTorrentClient_DownloadComplete_Test
attr title  "Descargas completas (prueba), vector"
vector 49  BasicTopology.peer[24].bitTorrentApp.bitTorrentClient  DownloadComplete_Test:vector  ETV
attr source  BitTorrentClient_DownloadComplete_Test
attr title  "Descargas completas (prueba), vector"
vector 833  BasicTopology.peer[0].bitTorrentApp.bitTorrentClient.contentManager_26  TotalBytesUploaded:vector  ETV
attr source  ContentManager_TotalBytesUploaded
attr title  "Total of Bytes Uploaded, vector"
attr unit  B
vector 1000  BasicTopology.peer[21].bitTorrentApp.bitTorrentClient.contentManager_26  TotalBytesDownloaded:vector  ETV
attr source  ContentManager_TotalBytesDownloaded
attr title  "Total of Bytes Downloaded, vector"
attr unit  B
vector 912  BasicTopology.peer[10].bitTorrentApp.bitTorrentClient.contentManager_26  TotalBytesDownloaded:vector  ETV
attr source  ContentManager_TotalBytesDownloaded
attr title  "Total of Bytes Downloaded, vector"
attr unit  B
vector 911  BasicTopology.peer[10].bitTorrentApp.bitTorrentClient.contentManager_26  PiecesDownloaded:vector  ETV
attr source  ContentManager_PieceDownloaded
attr title  "Pieces Downloaded, vector"
vector 913  BasicTopology.peer[10].bitTorrentApp.bitTorrentClient.contentManager_26  TotalBytesUploaded:vector  ETV
attr source  ContentManager_TotalBytesUploaded
attr title  "Total of Bytes Uploaded, vector"
attr unit  B
vector 999  BasicTopology.peer[21].bitTorrentApp.bitTorrentClient.contentManager_26  PiecesDownloaded:vector  ETV
attr source  ContentManager_PieceDownloaded
attr title  "Pieces Downloaded, vector"
vector 1001  BasicTopology.peer[21].bitTorrentApp.bitTorrentClient.contentManager_26  TotalBytesUploaded:vector  ETV
attr source  ContentManager_TotalBytesUploaded
attr title  "Total of Bytes Uploaded, vector"
attr unit  B
vector 848  BasicTopology.peer[2].bitTorrentApp.bitTorrentClient.contentManager_26  TotalBytesDownloaded:vector  ETV
attr source  ContentManager_TotalBytesDownloaded
attr title  "Total of Bytes Downloaded, vector"
attr unit  B
vector 872  BasicTopology.peer[5].bitTorrentApp.bitTorrentClient.contentManager_26  TotalBytesDownloaded:vector  ETV
attr source  ContentManager_TotalBytesDownloaded
attr title  "Total of Bytes Downloaded, vector"
attr unit  B
vector 928  BasicTopology.peer[12].bitTorrentApp.bitTorrentClient.contentManager_26  TotalBytesDownloaded:vector  ETV
attr source  ContentManager_TotalBytesDownloaded
attr title  "Total of Bytes Downloaded, vector"
attr unit  B
vector 904  BasicTopology.peer[9].bitTorrentApp.bitTorrentClient.contentManager_26  TotalBytesDownloaded:vector  ETV
attr source  ContentManager_TotalBytesDownloaded
attr title  "Total of Bytes Downloaded, vector"
attr unit  B
vector 856  BasicTopology.peer[3].bitTorrentApp.bitTorrentClient.contentManager_26  TotalBytesDownloaded:vector  ETV
attr source  ContentManager_TotalBytesDownloaded
attr title  "Total of Bytes Downloaded, vector"
attr unit  B
vector 968  BasicTopology.peer[17].bitTorrentApp.bitTorrentClient.contentManager_26  TotalBytesDownloaded:vector  ETV
attr source  ContentManager_TotalBytesDownloaded
attr title  "Total of Bytes Downloaded, vector"
attr unit  B
vector 864  BasicTopology.peer[4].bitTorrentApp.bitTorrentClient.contentManager_26  TotalBytesDownloaded:vector  ETV
attr source  ContentManager_TotalBytesDownloaded
attr title  "Total of Bytes Downloaded, vector"
attr unit  B
vector 863  BasicTopology.peer[4].bitTorrentApp.bitTorrentClient.contentManager_26  PiecesDownloaded:vector  ETV
attr source  ContentManager_PieceDownloaded
attr title  "Pieces Downloaded, vector"
vector 865  BasicTopology.peer[4].bitTorrentApp.bitTorrentClient.contentManager_26  TotalBytesUploaded:vector  ETV
attr source  ContentManager_TotalBytesUploaded
attr title  "Total of Bytes Uploaded, vector"
attr unit  B
vector 984  BasicTopology.peer[19].bitTorrentApp.bitTorrentClient.contentManager_26  TotalBytesDownloaded:vector  ETV
attr source  ContentManager_TotalBytesDownloaded
attr title  "Total of Bytes Downloaded, vector"
attr unit  B
vector 936  BasicTopology.peer[13].bitTorrentApp.bitTorrentClient.contentManager_26  TotalBytesDownloaded:vector  ETV
attr source  ContentManager_TotalBytesDownloaded
attr title  "Total of Bytes Downloaded, vector"
attr unit  B
vector 880  BasicTopology.peer[6].bitTorrentApp.bitTorrentClient.contentManager_26  TotalBytesDownloaded:vector  ETV
attr source  ContentManager_TotalBytesDownloaded
attr title  "Total of Bytes Downloaded, vector"
attr unit  B
vector 847  BasicTopology.peer[2].bitTorrentApp.bitTorrentClient.contentManager_26  PiecesDownloaded:vector  ETV
attr source  ContentManager_PieceDownloaded
attr title  "Pieces Downloaded, vector"
vector 849  BasicTopology.peer[2].bitTorrentApp.bitTorrentClient.contentManager_26  TotalBytesUploaded:vector  ETV
attr source  ContentManager_TotalBytesUploaded
attr title  "Total of Bytes Uploaded, vector"
attr unit  B
vector 840  BasicTopology.peer[1].bitTorrentApp.bitTorrentClient.contentManager_26  TotalBytesDownloaded:vector  ETV
attr source  ContentManager_TotalBytesDownloaded
attr title  "Total of Bytes Downloaded, vector"
attr unit  B
vector 944  BasicTopology.peer[14].bitTorrentApp.bitTorrentClient.contentManager_26  TotalBytesDownloaded:vector  ETV
attr source  ContentManager_TotalBytesDownloaded
attr title  "Total of Bytes Downloaded, vector"
attr unit  B
vector 983  BasicTopology.peer[19].bitTorrentApp.bitTorrentClient.contentManager_26  PiecesDownloaded:vector  ETV
attr source  ContentManager_PieceDownloaded
attr title  "Pieces Downloaded, vector"
vector 985  BasicTopology.peer[19].bitTorrentApp.bitTorrentClient.contentManager_26  TotalBytesUploaded:vector  ETV
attr source  ContentManager_TotalBytesUploaded
attr title  "Total of Bytes Uploaded, vector"
attr unit  B
vector 855  BasicTopology.peer[3].bitTorrentApp.bitTorrentClient.contentManager_26  PiecesDownloaded:vector  ETV
attr source  ContentManager_PieceDownloaded
attr title  "Pieces Downloaded, vector"
vector 976  BasicTopology.peer[18].bitTorrentApp.bitTorrentClient.contentManager_26  TotalBytesDownloaded:vector  ETV
attr source  ContentManager_TotalBytesDownloaded
attr title  "Total of Bytes Downloaded, vector"
attr unit  B
vector 857  BasicTopology.peer[3].bitTorrentApp.bitTorrentClient.contentManager_26  TotalBytesUploaded:vector  ETV
attr source  ContentManager_TotalBytesUploaded
attr title  "Total of Bytes Uploaded, vector"
attr unit  B
vector 879  BasicTopology.peer[6].bitTorrentApp.bitTorrentClient.contentManager_26  PiecesDownloaded:vector  ETV
attr source  ContentManager_PieceDownloaded
attr title  "Pieces Downloaded, vector"
vector 839  BasicTopology.peer[1].bitTorrentApp.bitTorrentClient.contentManager_26  PiecesDownloaded:vector  ETV
attr source  ContentManager_PieceDownloaded
attr title  "Pieces Downloaded, vector"
vector 881  BasicTopology.peer[6].bitTorrentApp.bitTorrentClient.contentManager_26  TotalBytesUploaded:vector  ETV
attr source  ContentManager_TotalBytesUploaded
attr title  "Total of Bytes Uploaded, vector"
attr unit  B
vector 927  BasicTopology.peer[12].bitTorrentApp.bitTorrentClient.contentManager_26  PiecesDownloaded:vector  ETV
attr source  ContentManager_PieceDownloaded
attr title  "Pieces Downloaded, vector"
vector 929  BasicTopology.peer[12].bitTorrentApp.bitTorrentClient.contentManager_26  TotalBytesUploaded:vector  ETV
attr source  ContentManager_TotalBytesUploaded
attr title  "Total of Bytes Uploaded, vector"
attr unit  B
vector 888  BasicTopology.peer[7].bitTorrentApp.bitTorrentClient.contentManager_26  TotalBytesDownloaded:vector  ETV
attr source  ContentManager_TotalBytesDownloaded
attr title  "Total of Bytes Downloaded, vector"
attr unit  B
vector 1016  BasicTopology.peer[23].bitTorrentApp.bitTorrentClient.contentManager_26  TotalBytesDownloaded:vector  ETV
attr source  ContentManager_TotalBytesDownloaded
attr title  "Total of Bytes Downloaded, vector"
attr unit  B
vector 952  BasicTopology.peer[15].bitTorrentApp.bitTorrentClient.contentManager_26  TotalBytesDownloaded:vector  ETV
attr source  ContentManager_TotalBytesDownloaded
attr title  "Total of Bytes Downloaded, vector"
attr unit  B
vector 960  BasicTopology.peer[16].bitTorrentApp.bitTorrentClient.contentManager_26  TotalBytesDownloaded:vector  ETV
attr source  ContentManager_TotalBytesDownloaded
attr title  "Total of Bytes Downloaded, vector"
attr unit  B
vector 992  BasicTopology.peer[20].bitTorrentApp.bitTorrentClient.contentManager_26  TotalBytesDownloaded:vector  ETV
attr source  ContentManager_TotalBytesDownloaded
attr title  "Total of Bytes Downloaded, vector"
attr unit  B
vector 896  BasicTopology.peer[8].bitTorrentApp.bitTorrentClient.contentManager_26  TotalBytesDownloaded:vector  ETV
attr source  ContentManager_TotalBytesDownloaded
attr title  "Total of Bytes Downloaded, vector"
attr unit  B
vector 895  BasicTopology.peer[8].bitTorrentApp.bitTorrentClient.contentManager_26  PiecesDownloaded:vector  ETV
attr source  ContentManager_PieceDownloaded
attr title  "Pieces Downloaded, vector"
vector 841  BasicTopology.peer[1].bitTorrentApp.bitTorrentClient.contentManager_26  TotalBytesUploaded:vector  ETV
attr source  ContentManager_TotalBytesUploaded
attr title  "Total of Bytes Uploaded, vector"
attr unit  B
vector 1008  BasicTopology.peer[22].bitTorrentApp.bitTorrentClient.contentManager_26  TotalBytesDownloaded:vector  ETV
attr source  ContentManager_TotalBytesDownloaded
attr title  "Total of Bytes Downloaded, vector"
attr unit  B
vector 1015  BasicTopology.peer[23].bitTorrentApp.bitTorrentClient.contentManager_26  PiecesDownloaded:vector  ETV
attr source  ContentManager_PieceDownloaded
attr title  "Pieces Downloaded, vector"
vector 1024  BasicTopology.peer[24].bitTorrentApp.bitTorrentClient.contentManager_26  TotalBytesDownloaded:vector  ETV
attr source  ContentManager_TotalBytesDownloaded
attr title  "Total of Bytes Downloaded, vector"
attr unit  B
vector 943  BasicTopology.peer[14].bitTorrentApp.bitTorrentClient.contentManager_26  PiecesDownloaded:vector  ETV
attr source  ContentManager_PieceDownloaded
attr title  "Pieces Downloaded, vector"
vector 991  BasicTopology.peer[20].bitTorrentApp.bitTorrentClient.contentManager_26  PiecesDownloaded:vector  ETV
attr source  ContentManager_PieceDownloaded
attr title  "Pieces Downloaded, vector"
vector 993  BasicTopology.peer[20].bitTorrentApp.bitTorrentClient.contentManager_26  TotalBytesUploaded:vector  ETV
attr source  ContentManager_TotalBytesUploaded
attr title  "Total of Bytes Uploaded, vector"
attr unit  B
vector 903  BasicTopology.peer[9].bitTorrentApp.bitTorrentClient.contentManager_26  PiecesDownloaded:vector  ETV
attr source  ContentManager_PieceDownloaded
attr title  "Pieces Downloaded, vector"
vector 920  BasicTopology.peer[11].bitTorrentApp.bitTorrentClient.contentManager_26  TotalBytesDownloaded:vector  ETV
attr source  ContentManager_TotalBytesDownloaded
attr title  "Total of Bytes Downloaded, vector"
attr unit  B
vector 967  BasicTopology.peer[17].bitTorrentApp.bitTorrentClient.contentManager_26  PiecesDownloaded:vector  ETV
attr source  ContentManager_PieceDownloaded
attr title  "Pieces Downloaded, vector"
vector 887  BasicTopology.peer[7].bitTorrentApp.bitTorrentClient.contentManager_26  PiecesDownloaded:vector  ETV
attr source  ContentManager_PieceDownloaded
attr title  "Pieces Downloaded, vector"
vector 975  BasicTopology.peer[18].bitTorrentApp.bitTorrentClient.contentManager_26  PiecesDownloaded:vector  ETV
attr source  ContentManager_PieceDownloaded
attr title  "Pieces Downloaded, vector"
vector 1023  BasicTopology.peer[24].bitTorrentApp.bitTorrentClient.contentManager_26  PiecesDownloaded:vector  ETV
attr source  ContentManager_PieceDownloaded
attr title  "Pieces Downloaded, vector"
vector 959  BasicTopology.peer[16].bitTorrentApp.bitTorrentClient.contentManager_26  PiecesDownloaded:vector  ETV
attr source  ContentManager_PieceDownloaded
attr title  "Pieces Downloaded, vector"
vector 951  BasicTopology.peer[15].bitTorrentApp.bitTorrentClient.contentManager_26  PiecesDownloaded:vector  ETV
attr source  ContentManager_PieceDownloaded
attr title  "Pieces Downloaded, vector"
vector 953  BasicTopology.peer[15].bitTorrentApp.bitTorrentClient.contentManager_26  TotalBytesUploaded:vector  ETV
attr source  ContentManager_TotalBytesUploaded
attr title  "Total of Bytes Uploaded, vector"
attr unit  B
vector 961  BasicTopology.peer[16].bitTorrentApp.bitTorrentClient.contentManager_26  TotalBytesUploaded:vector  ETV
attr source  ContentManager_TotalBytesUploaded
attr title  "Total of Bytes Uploaded, vector"
attr unit  B
vector 1025  BasicTopology.peer[24].bitTorrentApp.bitTorrentClient.contentManager_26  TotalBytesUploaded:vector  ETV
attr source  ContentManager_TotalBytesUploaded
attr title  "Total of Bytes Uploaded, vector"
attr unit  B
vector 871  BasicTopology.peer[5].bitTorrentApp.bitTorrentClient.contentManager_26  PiecesDownloaded:vector  ETV
attr source  ContentManager_PieceDownloaded
attr title  "Pieces Downloaded, vector"
vector 873  BasicTopology.peer[5].bitTorrentApp.bitTorrentClient.contentManager_26  TotalBytesUploaded:vector  ETV
attr source  ContentManager_TotalBytesUploaded
attr title  "Total of Bytes Uploaded, vector"
attr unit  B
vector 919  BasicTopology.peer[11].bitTorrentApp.bitTorrentClient.contentManager_26  PiecesDownloaded:vector  ETV
attr source  ContentManager_PieceDownloaded
attr title  "Pieces Downloaded, vector"
vector 1007  BasicTopology.peer[22].bitTorrentApp.bitTorrentClient.contentManager_26  PiecesDownloaded:vector  ETV
attr source  ContentManager_PieceDownloaded
attr title  "Pieces Downloaded, vector"
vector 921  BasicTopology.peer[11].bitTorrentApp.bitTorrentClient.contentManager_26  TotalBytesUploaded:vector  ETV
attr source  ContentManager_TotalBytesUploaded
attr title  "Total of Bytes Uploaded, vector"
attr unit  B
vector 1009  BasicTopology.peer[22].bitTorrentApp.bitTorrentClient.contentManager_26  TotalBytesUploaded:vector  ETV
attr source  ContentManager_TotalBytesUploaded
attr title  "Total of Bytes Uploaded, vector"
attr unit  B
vector 889  BasicTopology.peer[7].bitTorrentApp.bitTorrentClient.contentManager_26  TotalBytesUploaded:vector  ETV
attr source  ContentManager_TotalBytesUploaded
attr title  "Total of Bytes Uploaded, vector"
attr unit  B
vector 905  BasicTopology.peer[9].bitTorrentApp.bitTorrentClient.contentManager_26  TotalBytesUploaded:vector  ETV
attr source  ContentManager_TotalBytesUploaded
attr title  "Total of Bytes Uploaded, vector"
attr unit  B
vector 935  BasicTopology.peer[13].bitTorrentApp.bitTorrentClient.contentManager_26  PiecesDownloaded:vector  ETV
attr source  ContentManager_PieceDownloaded
attr title  "Pieces Downloaded, vector"
vector 1017  BasicTopology.peer[23].bitTorrentApp.bitTorrentClient.contentManager_26  TotalBytesUploaded:vector  ETV
attr source  ContentManager_TotalBytesUploaded
attr title  "Total of Bytes Uploaded, vector"
attr unit  B
vector 937  BasicTopology.peer[13].bitTorrentApp.bitTorrentClient.contentManager_26  TotalBytesUploaded:vector  ETV
attr source  ContentManager_TotalBytesUploaded
attr title  "Total of Bytes Uploaded, vector"
attr unit  B
vector 897  BasicTopology.peer[8].bitTorrentApp.bitTorrentClient.contentManager_26  TotalBytesUploaded:vector  ETV
attr source  ContentManager_TotalBytesUploaded
attr title  "Total of Bytes Uploaded, vector"
attr unit  B
3	85	36001	36001
3	41724905	36071.214302591812	36071.214302592
5	86	36001	36001
5	67890452	36123.744320727558	36123.744320728
7	87	36001	36001
7	61437552	36108.845413277167	36108.845413277
9	88	36001	36001
9	67142237	36121.825087140858	36121.825087141
11	89	36001	36001
11	80212391	36306.742702773266	36306.742702773
13	90	36001	36001
13	72218890	36134.661936081616	36134.661936082
15	91	36001	36001
15	70822520	36131.297404993791	36131.297404994
17	92	36001	36001
17	77662683	36159.180814264017	36159.180814264
19	93	36001	36001
19	76920417	36154.387014364923	36154.387014365
21	94	36001	36001
21	43367129	36073.843629819958	36073.84362982
23	95	36001	36001
23	79803006	36303.621659208809	36303.621659209
25	96	36001	36001
25	60548956	36107.070252045033	36107.070252045
27	97	36001	36001
27	73155861	36138.83755538717	36138.837555387
29	98	36001	36001
29	61691588	36109.423742063069	36109.423742063
31	99	36001	36001
31	74889801	36148.487754471723	36148.487754472
33	100	36001	36001
33	71447928	36133.106412383284	36133.106412383
35	101	36001	36001
35	79759445	36302.64426430453	36302.644264305
37	102	36001	36001
37	76179452	36152.039566701941	36152.039566702
39	103	36001	36001
39	77491018	36156.757026128012	36156.757026128
41	104	36001	36001
41	44008754	36074.91322989342	36074.913229893
43	105	36001	36001
43	25985775	36045.829021244612	36045.829021245
45	106	36001	36001
45	42802223	36072.85430304681	36072.854303047
47	107	36001	36001
47	37657005	36064.940925778019	36064.940925778
49	108	36001	36001
49	46996266	36080.102534555797	36080.102534556
833	157482	36001.140026258911	32768
833	170123	36001.153325191158	65536
833	170201	36001.153403946142	98304
833	174526	36001.157590769268	131072
833	174939	36001.157917593247	163840
833	180577	36001.163259305143	196608
833	190670	36001.180902188263	229376
833	197096	36001.193969549831	262144
833	197098	36001.194844449059	294912
833	197100	36001.195033300135	327680
833	274479	36001.560686095858	360448
833	276021	36001.562797504831	393216
833	276307	36001.563329645565	425984
833	277000	36001.56451300681	458752
833	277863	36001.56571969335	491520
833	285973	36001.57454248041	524288
833	293610	36001.583401116074	557056
833	303373	36001.597348240845	589824
833	303672	36001.597745591815	622592
833	306484	36001.601101222991	655360
833	552027	36002.601667918938	688128
833	591593	36002.654849892887	720896
833	591639	36002.654888463362	753664
833	592077	36002.656217816063	786432
833	593639	36002.660677182661	819200
833	595210	36002.665714692696	851968
833	599317	36002.679418239357	884736
833	613236	36002.721552080894	917504
833	618181	36002.734517612533	950272
833	627800	36002.760837177508	983040
833	628063	36002.761687812559	1015808
833	628115	36002.76174387034	1048576
833	628622	36002.763220005718	1081344
833	631758	36002.771679434585	1114112
833	654230	36002.832474341042	1146880
833	665817	36002.864424226622	1179648
833	690680	36002.930843484315	1212416
833	712891	36002.989515627477	1245184
833	795073	36003.705926005739	1277952
833	807165	36003.753328491059	1310720
833	821862	36003.810799823705	1343488
833	838369	36003.875084690729	1376256
833	858426	36003.950695804343	1409024
833	871395	36003.998308412593	1441792
833	1033018	36004.137094173011	1474560
833	1054520	36004.157779970024	1507328
833	1071118	36004.177215835226	1540096
833	1081597	36004.192804474027	1572864
833	1086403	36004.198374816208	1605632
833	1086742	36004.198714242971	1638400
833	1103031	36004.232945451672	1671168
833	1103119	36004.233573764236	1703936
833	1103184	36004.233807237358	1736704
833	1105647	36004.24327904438	1769472
833	1109401	36004.254711305688	1802240
833	1110791	36004.257719418433	1835008
833	1171126	36004.355701761278	1867776
833	1203552	36004.400421482891	1900544
833	1224230	36004.474382524741	1933312
833	1398109	36004.820363565439	1966080
833	1441739	36004.933082471679	1998848
833	1518657	36005.097904728796	2031616
833	1614358	36005.328923470601	2064384
833	1615959	36005.332189181837	2097152
833	1677248	36005.48534895077	2129920
833	1775934	36005.670160347011	2162688
833	1988917	36006.056824677136	2195456
833	2196573	36006.568459111602	2228224
833	2219630	36006.628068520741	2260992
833	2250932	36006.698285656665	2293760
833	2259003	36006.725539402936	2326528
833	2282040	36006.808198812879	2359296
833	2313503	36006.885206341382	2392064
833	2367157	36006.975512602527	2424832
833	2433435	36007.061067597713	2457600
833	2484346	36007.126211364695	2490368
833	3181938	36008.746902573778	2523136
833	3236855	36008.836837795568	2555904
833	3487490	36009.249282392768	2588672
833	3490845	36009.25344412849	2621440
833	3492064	36009.255386023208	2654208
833	3492349	36009.255958980662	2686976
833	3771074	36009.874326175635	2719744
833	4120776	36010.530181496668	2752512
833	4170728	36010.602662037043	2785280
833	4229582	36010.6869384198	2818048
833	4270311	36010.751498425554	2850816
833	4308674	36010.817660701213	2883584
833	4359977	36010.905844059657	2916352
833	4489149	36011.115586262799	2949120
833	4525979	36011.168212383923	2981888
833	4560911	36011.217578597239	3014656
833	4594818	36011.267989951911	3047424
833	4640773	36011.335999458756	3080192
833	4986568	36011.996368719418	3112960
833	5040319	36012.06070096839	3145728
833	5205946	36012.386955284338	3178496
833	5242879	36012.442532461792	3211264
833	5774015	36013.230369322316	3244032
833	5797705	36013.257140707345	3276800
833	6545657	36014.34794378387	3309568
833	6562160	36014.378403737418	3342336
833	6623935	36014.529765828284	3375104
833	6631897	36014.541002783549	3407872
833	6704972	36014.660676123594	3440640
833	6740466	36014.726956401469	3473408
833	6776408	36014.804634078761	3506176
833	7408539	36016.02558730215	3538944
833	7486674	36016.128561533254	3571712
833	7489809	36016.132487173429	3604480
833	7595427	36016.292275108211	3637248
833	7798021	36016.589976153747	3670016
833	7864920	36016.663831336255	3702784
833	8122071	36017.007164052512	3735552
833	8389915	36017.387394799573	3768320
833	8459404	36017.473053393148	3801088
833	8522350	36017.55357424629	3833856
833	8586728	36017.641320485308	3866624
833	8660040	36017.740927835479	3899392
833	8953581	36018.134689447554	3932160
833	8978837	36018.172140257953	3964928
833	9043340	36018.26992078127	3997696
833	9338913	36018.743790005395	4030464
833	9399842	36018.843055530382	4063232
833	9424728	36018.886534461688	4096000
833	9476624	36018.96825445755	4128768
833	9524841	36019.04655362292	4161536
833	10082516	36020.15541716924	4194304
833	10138138	36020.259581301103	4227072
833	10195758	36020.356085782378	4259840
833	10476484	36020.828024323497	4292608
833	10803684	36021.429504275207	4325376
833	10805427	36021.433177812963	4358144
833	10806200	36021.43474224867	4390912
833	10818286	36021.458497856379	4423680
833	10823835	36021.470769604045	4456448
833	11107667	36021.997562828554	4489216
833	11241762	36022.14174170336	4521984
833	11300696	36022.233925306082	4554752
833	11360105	36022.318693850403	4587520
833	12281334	36023.803456270499	4620288
833	12284147	36023.808111634671	4653056
833	12287222	36023.813561454305	4685824
833	12287934	36023.814711899517	4718592
833	12288348	36023.815265896461	4751360
833	12288486	36023.815678739136	4784128
833	12289089	36023.816520406265	4816896
833	12291071	36023.819818211976	4849664
833	12306322	36023.840028774927	4882432
833	12306838	36023.840719465731	4915200
833	12837839	36024.573314821613	4947968
833	14345975	36027.03100672048	4980736
833	15755815	36029.37716848189	5013504
833	16514545	36030.537451177333	5046272
833	16624178	36030.702479300507	5079040
833	17324696	36031.718532322822	5111808
833	17325972	36031.719873627146	5144576
833	17332951	36031.728019271888	5177344
833	17338552	36031.734555749179	5210112
833	17338644	36031.734688952036	5242880
833	17339840	36031.736091243175	5275648
833	17349906	36031.749311682439	5308416
833	17358126	36031.759278618069	5341184
833	17358892	36031.760460000309	5373952
833	17359127	36031.760730112189	5406720
833	17394847	36031.818620944346	5439488
833	17458239	36031.904217008715	5472256
833	19429181	36035.0511923711	5505024
833	20216781	36036.36800622733	5537792
833	20966560	36037.594583636643	5570560
833	21041750	36037.699012780062	5603328
833	21245254	36038.126873795274	5636096
833	21321983	36038.227896102756	5668864
833	21413773	36038.355564358935	5701632
833	21957968	36039.142044696566	5734400
833	22087038	36039.445122316428	5767168
833	22125437	36039.500585688727	5799936
833	22763041	36040.631643921644	5832704
833	23573005	36041.813796095993	5865472
833	25456563	36044.919569623035	5898240
833	26138951	36046.070862259229	5931008
833	27325807	36048.072433892484	5963776
833	27408874	36048.189912594613	5996544
833	28178009	36049.474218746076	6029312
833	29127140	36051.1548437331	6062080
833	29127730	36051.155596536384	6094848
833	29128223	36051.156500982872	6127616
833	29132393	36051.167009591977	6160384
833	29132445	36051.16705510854	6193152
833	29133212	36051.168292128186	6225920
833	29133262	36051.168388110535	6258688
833	29137314	36051.174671577544	6291456
833	29138489	36051.176971082375	6324224
833	29139305	36051.178928608498	6356992
833	29230898	36051.319946338185	6389760
833	29244455	36051.340516412298	6422528
833	30416395	36053.41698028277	6455296
833	30611755	36053.686235308	6488064
833	30657785	36053.746278588278	6520832
833	30714933	36053.8269871942	6553600
833	31140482	36054.497004898898	6586368
833	31425223	36054.913781940256	6619136
833	31482072	36055.000678628572	6651904
833	31539079	36055.085090120724	6684672
833	31596283	36055.174028561323	6717440
833	32336197	36056.34468298795	6750208
833	32412886	36056.454040908911	6782976
833	32469112	36056.551445865545	6815744