version 2
run Test-18-20200526-12:15:53-5326
attr configname Test
attr datetime 20200526-12:15:53
attr experiment "\"Simulation Test\""
attr inifile BasicConfig.ini
attr iterationvars ""
attr iterationvars2 $repetition=18
attr measurement "\"Peers: $peers, Rate: $rate\""
attr network BasicTopology
attr processid 5326
attr repetition 18
attr replication #18
attr resultdir results
attr runnumber 18
attr seedset 18

vector 3  BasicTopology.peer[1].bitTorrentApp.bitTorrentClient  DownloadComplete_Test:vector  ETV
attr source  BitTorrentClient_DownloadComplete_Test
attr title  "Descargas completas (prueba), vector"
vector 5  BasicTopology.peer[2].bitTorrentApp.bitTorrentClient  DownloadComplete_Test:vector  ETV
attr source  BitTorrentClient_DownloadComplete_Test
attr title  "Descargas completas (prueba), vector"
vector 7  BasicTopology.peer[3].bitTorrentApp.bitTorrentClient  DownloadComplete_Test:vector  ETV
attr source  BitTorrentClient_DownloadComplete_Test
attr title  "Descargas completas (prueba), vector"
vector 9  BasicTopology.peer[4].bitTorrentApp.bitTorrentClient  DownloadComplete_Test:vector  ETV
attr source  BitTorrentClient_DownloadComplete_Test
attr title  "Descargas completas (prueba), vector"
vector 11  BasicTopology.peer[5].bitTorrentApp.bitTorrentClient  DownloadComplete_Test:vector  ETV
attr source  BitTorrentClient_DownloadComplete_Test
attr title  "Descargas completas (prueba), vector"
vector 13  BasicTopology.peer[6].bitTorrentApp.bitTorrentClient  DownloadComplete_Test:vector  ETV
attr source  BitTorrentClient_DownloadComplete_Test
attr title  "Descargas completas (prueba), vector"
vector 15  BasicTopology.peer[7].bitTorrentApp.bitTorrentClient  DownloadComplete_Test:vector  ETV
attr source  BitTorrentClient_DownloadComplete_Test
attr title  "Descargas completas (prueba), vector"
vector 17  BasicTopology.peer[8].bitTorrentApp.bitTorrentClient  DownloadComplete_Test:vector  ETV
attr source  BitTorrentClient_DownloadComplete_Test
attr title  "Descargas completas (prueba), vector"
vector 19  BasicTopology.peer[9].bitTorrentApp.bitTorrentClient  DownloadComplete_Test:vector  ETV
attr source  BitTorrentClient_DownloadComplete_Test
attr title  "Descargas completas (prueba), vector"
vector 21  BasicTopology.peer[10].bitTorrentApp.bitTorrentClient  DownloadComplete_Test:vector  ETV
attr source  BitTorrentClient_DownloadComplete_Test
attr title  "Descargas completas (prueba), vector"
vector 23  BasicTopology.peer[11].bitTorrentApp.bitTorrentClient  DownloadComplete_Test:vector  ETV
attr source  BitTorrentClient_DownloadComplete_Test
attr title  "Descargas completas (prueba), vector"
vector 25  BasicTopology.peer[12].bitTorrentApp.bitTorrentClient  DownloadComplete_Test:vector  ETV
attr source  BitTorrentClient_DownloadComplete_Test
attr title  "Descargas completas (prueba), vector"
vector 27  BasicTopology.peer[13].bitTorrentApp.bitTorrentClient  DownloadComplete_Test:vector  ETV
attr source  BitTorrentClient_DownloadComplete_Test
attr title  "Descargas completas (prueba), vector"
vector 29  BasicTopology.peer[14].bitTorrentApp.bitTorrentClient  DownloadComplete_Test:vector  ETV
attr source  BitTorrentClient_DownloadComplete_Test
attr title  "Descargas completas (prueba), vector"
vector 31  BasicTopology.peer[15].bitTorrentApp.bitTorrentClient  DownloadComplete_Test:vector  ETV
attr source  BitTorrentClient_DownloadComplete_Test
attr title  "Descargas completas (prueba), vector"
vector 33  BasicTopology.peer[16].bitTorrentApp.bitTorrentClient  DownloadComplete_Test:vector  ETV
attr source  BitTorrentClient_DownloadComplete_Test
attr title  "Descargas completas (prueba), vector"
vector 35  BasicTopology.peer[17].bitTorrentApp.bitTorrentClient  DownloadComplete_Test:vector  ETV
attr source  BitTorrentClient_DownloadComplete_Test
attr title  "Descargas completas (prueba), vector"
vector 37  BasicTopology.peer[18].bitTorrentApp.bitTorrentClient  DownloadComplete_Test:vector  ETV
attr source  BitTorrentClient_DownloadComplete_Test
attr title  "Descargas completas (prueba), vector"
vector 39  BasicTopology.peer[19].bitTorrentApp.bitTorrentClient  DownloadComplete_Test:vector  ETV
attr source  BitTorrentClient_DownloadComplete_Test
attr title  "Descargas completas (prueba), vector"
vector 41  BasicTopology.peer[20].bitTorrentApp.bitTorrentClient  DownloadComplete_Test:vector  ETV
attr source  BitTorrentClient_DownloadComplete_Test
attr title  "Descargas completas (prueba), vector"
vector 43  BasicTopology.peer[21].bitTorrentApp.bitTorrentClient  DownloadComplete_Test:vector  ETV
attr source  BitTorrentClient_DownloadComplete_Test
attr title  "Descargas completas (prueba), vector"
vector 45  BasicTopology.peer[22].bitTorrentApp.bitTorrentClient  DownloadComplete_Test:vector  ETV
attr source  BitTorrentClient_DownloadComplete_Test
attr title  "Descargas completas (prueba), vector"
vector 47  BasicTopology.peer[23].bitTorrentApp.bitTorrentClient  DownloadComplete_Test:vector  ETV
attr source  BitTorrentClient_DownloadComplete_Test
attr title  "Descargas completas (prueba), vector"
vector 49  BasicTopology.peer[24].bitTorrentApp.bitTorrentClient  DownloadComplete_Test:vector  ETV
attr source  BitTorrentClient_DownloadComplete_Test
attr title  "Descargas completas (prueba), vector"
vector 833  BasicTopology.peer[0].bitTorrentApp.bitTorrentClient.contentManager_26  TotalBytesUploaded:vector  ETV
attr source  ContentManager_TotalBytesUploaded
attr title  "Total of Bytes Uploaded, vector"
attr unit  B
vector 1008  BasicTopology.peer[22].bitTorrentApp.bitTorrentClient.contentManager_26  TotalBytesDownloaded:vector  ETV
attr source  ContentManager_TotalBytesDownloaded
attr title  "Total of Bytes Downloaded, vector"
attr unit  B
vector 1007  BasicTopology.peer[22].bitTorrentApp.bitTorrentClient.contentManager_26  PiecesDownloaded:vector  ETV
attr source  ContentManager_PieceDownloaded
attr title  "Pieces Downloaded, vector"
vector 1009  BasicTopology.peer[22].bitTorrentApp.bitTorrentClient.contentManager_26  TotalBytesUploaded:vector  ETV
attr source  ContentManager_TotalBytesUploaded
attr title  "Total of Bytes Uploaded, vector"
attr unit  B
vector 968  BasicTopology.peer[17].bitTorrentApp.bitTorrentClient.contentManager_26  TotalBytesDownloaded:vector  ETV
attr source  ContentManager_TotalBytesDownloaded
attr title  "Total of Bytes Downloaded, vector"
attr unit  B
vector 888  BasicTopology.peer[7].bitTorrentApp.bitTorrentClient.contentManager_26  TotalBytesDownloaded:vector  ETV
attr source  ContentManager_TotalBytesDownloaded
attr title  "Total of Bytes Downloaded, vector"
attr unit  B
vector 936  BasicTopology.peer[13].bitTorrentApp.bitTorrentClient.contentManager_26  TotalBytesDownloaded:vector  ETV
attr source  ContentManager_TotalBytesDownloaded
attr title  "Total of Bytes Downloaded, vector"
attr unit  B
vector 960  BasicTopology.peer[16].bitTorrentApp.bitTorrentClient.contentManager_26  TotalBytesDownloaded:vector  ETV
attr source  ContentManager_TotalBytesDownloaded
attr title  "Total of Bytes Downloaded, vector"
attr unit  B
vector 967  BasicTopology.peer[17].bitTorrentApp.bitTorrentClient.contentManager_26  PiecesDownloaded:vector  ETV
attr source  ContentManager_PieceDownloaded
attr title  "Pieces Downloaded, vector"
vector 969  BasicTopology.peer[17].bitTorrentApp.bitTorrentClient.contentManager_26  TotalBytesUploaded:vector  ETV
attr source  ContentManager_TotalBytesUploaded
attr title  "Total of Bytes Uploaded, vector"
attr unit  B
vector 840  BasicTopology.peer[1].bitTorrentApp.bitTorrentClient.contentManager_26  TotalBytesDownloaded:vector  ETV
attr source  ContentManager_TotalBytesDownloaded
attr title  "Total of Bytes Downloaded, vector"
attr unit  B
vector 839  BasicTopology.peer[1].bitTorrentApp.bitTorrentClient.contentManager_26  PiecesDownloaded:vector  ETV
attr source  ContentManager_PieceDownloaded
attr title  "Pieces Downloaded, vector"
vector 841  BasicTopology.peer[1].bitTorrentApp.bitTorrentClient.contentManager_26  TotalBytesUploaded:vector  ETV
attr source  ContentManager_TotalBytesUploaded
attr title  "Total of Bytes Uploaded, vector"
attr unit  B
vector 856  BasicTopology.peer[3].bitTorrentApp.bitTorrentClient.contentManager_26  TotalBytesDownloaded:vector  ETV
attr source  ContentManager_TotalBytesDownloaded
attr title  "Total of Bytes Downloaded, vector"
attr unit  B
vector 1000  BasicTopology.peer[21].bitTorrentApp.bitTorrentClient.contentManager_26  TotalBytesDownloaded:vector  ETV
attr source  ContentManager_TotalBytesDownloaded
attr title  "Total of Bytes Downloaded, vector"
attr unit  B
vector 880  BasicTopology.peer[6].bitTorrentApp.bitTorrentClient.contentManager_26  TotalBytesDownloaded:vector  ETV
attr source  ContentManager_TotalBytesDownloaded
attr title  "Total of Bytes Downloaded, vector"
attr unit  B
vector 864  BasicTopology.peer[4].bitTorrentApp.bitTorrentClient.contentManager_26  TotalBytesDownloaded:vector  ETV
attr source  ContentManager_TotalBytesDownloaded
attr title  "Total of Bytes Downloaded, vector"
attr unit  B
vector 855  BasicTopology.peer[3].bitTorrentApp.bitTorrentClient.contentManager_26  PiecesDownloaded:vector  ETV
attr source  ContentManager_PieceDownloaded
attr title  "Pieces Downloaded, vector"
vector 857  BasicTopology.peer[3].bitTorrentApp.bitTorrentClient.contentManager_26  TotalBytesUploaded:vector  ETV
attr source  ContentManager_TotalBytesUploaded
attr title  "Total of Bytes Uploaded, vector"
attr unit  B
vector 887  BasicTopology.peer[7].bitTorrentApp.bitTorrentClient.contentManager_26  PiecesDownloaded:vector  ETV
attr source  ContentManager_PieceDownloaded
attr title  "Pieces Downloaded, vector"
vector 889  BasicTopology.peer[7].bitTorrentApp.bitTorrentClient.contentManager_26  TotalBytesUploaded:vector  ETV
attr source  ContentManager_TotalBytesUploaded
attr title  "Total of Bytes Uploaded, vector"
attr unit  B
vector 920  BasicTopology.peer[11].bitTorrentApp.bitTorrentClient.contentManager_26  TotalBytesDownloaded:vector  ETV
attr source  ContentManager_TotalBytesDownloaded
attr title  "Total of Bytes Downloaded, vector"
attr unit  B
vector 904  BasicTopology.peer[9].bitTorrentApp.bitTorrentClient.contentManager_26  TotalBytesDownloaded:vector  ETV
attr source  ContentManager_TotalBytesDownloaded
attr title  "Total of Bytes Downloaded, vector"
attr unit  B
vector 999  BasicTopology.peer[21].bitTorrentApp.bitTorrentClient.contentManager_26  PiecesDownloaded:vector  ETV
attr source  ContentManager_PieceDownloaded
attr title  "Pieces Downloaded, vector"
vector 1001  BasicTopology.peer[21].bitTorrentApp.bitTorrentClient.contentManager_26  TotalBytesUploaded:vector  ETV
attr source  ContentManager_TotalBytesUploaded
attr title  "Total of Bytes Uploaded, vector"
attr unit  B
vector 952  BasicTopology.peer[15].bitTorrentApp.bitTorrentClient.contentManager_26  TotalBytesDownloaded:vector  ETV
attr source  ContentManager_TotalBytesDownloaded
attr title  "Total of Bytes Downloaded, vector"
attr unit  B
vector 944  BasicTopology.peer[14].bitTorrentApp.bitTorrentClient.contentManager_26  TotalBytesDownloaded:vector  ETV
attr source  ContentManager_TotalBytesDownloaded
attr title  "Total of Bytes Downloaded, vector"
attr unit  B
vector 848  BasicTopology.peer[2].bitTorrentApp.bitTorrentClient.contentManager_26  TotalBytesDownloaded:vector  ETV
attr source  ContentManager_TotalBytesDownloaded
attr title  "Total of Bytes Downloaded, vector"
attr unit  B
vector 903  BasicTopology.peer[9].bitTorrentApp.bitTorrentClient.contentManager_26  PiecesDownloaded:vector  ETV
attr source  ContentManager_PieceDownloaded
attr title  "Pieces Downloaded, vector"
vector 912  BasicTopology.peer[10].bitTorrentApp.bitTorrentClient.contentManager_26  TotalBytesDownloaded:vector  ETV
attr source  ContentManager_TotalBytesDownloaded
attr title  "Total of Bytes Downloaded, vector"
attr unit  B
vector 879  BasicTopology.peer[6].bitTorrentApp.bitTorrentClient.contentManager_26  PiecesDownloaded:vector  ETV
attr source  ContentManager_PieceDownloaded
attr title  "Pieces Downloaded, vector"
vector 951  BasicTopology.peer[15].bitTorrentApp.bitTorrentClient.contentManager_26  PiecesDownloaded:vector  ETV
attr source  ContentManager_PieceDownloaded
attr title  "Pieces Downloaded, vector"
vector 1016  BasicTopology.peer[23].bitTorrentApp.bitTorrentClient.contentManager_26  TotalBytesDownloaded:vector  ETV
attr source  ContentManager_TotalBytesDownloaded
attr title  "Total of Bytes Downloaded, vector"
attr unit  B
vector 905  BasicTopology.peer[9].bitTorrentApp.bitTorrentClient.contentManager_26  TotalBytesUploaded:vector  ETV
attr source  ContentManager_TotalBytesUploaded
attr title  "Total of Bytes Uploaded, vector"
attr unit  B
vector 1024  BasicTopology.peer[24].bitTorrentApp.bitTorrentClient.contentManager_26  TotalBytesDownloaded:vector  ETV
attr source  ContentManager_TotalBytesDownloaded
attr title  "Total of Bytes Downloaded, vector"
attr unit  B
vector 911  BasicTopology.peer[10].bitTorrentApp.bitTorrentClient.contentManager_26  PiecesDownloaded:vector  ETV
attr source  ContentManager_PieceDownloaded
attr title  "Pieces Downloaded, vector"
vector 992  BasicTopology.peer[20].bitTorrentApp.bitTorrentClient.contentManager_26  TotalBytesDownloaded:vector  ETV
attr source  ContentManager_TotalBytesDownloaded
attr title  "Total of Bytes Downloaded, vector"
attr unit  B
vector 896  BasicTopology.peer[8].bitTorrentApp.bitTorrentClient.contentManager_26  TotalBytesDownloaded:vector  ETV
attr source  ContentManager_TotalBytesDownloaded
attr title  "Total of Bytes Downloaded, vector"
attr unit  B
vector 991  BasicTopology.peer[20].bitTorrentApp.bitTorrentClient.contentManager_26  PiecesDownloaded:vector  ETV
attr source  ContentManager_PieceDownloaded
attr title  "Pieces Downloaded, vector"
vector 993  BasicTopology.peer[20].bitTorrentApp.bitTorrentClient.contentManager_26  TotalBytesUploaded:vector  ETV
attr source  ContentManager_TotalBytesUploaded
attr title  "Total of Bytes Uploaded, vector"
attr unit  B
vector 943  BasicTopology.peer[14].bitTorrentApp.bitTorrentClient.contentManager_26  PiecesDownloaded:vector  ETV
attr source  ContentManager_PieceDownloaded
attr title  "Pieces Downloaded, vector"
vector 847  BasicTopology.peer[2].bitTorrentApp.bitTorrentClient.contentManager_26  PiecesDownloaded:vector  ETV
attr source  ContentManager_PieceDownloaded
attr title  "Pieces Downloaded, vector"
vector 849  BasicTopology.peer[2].bitTorrentApp.bitTorrentClient.contentManager_26  TotalBytesUploaded:vector  ETV
attr source  ContentManager_TotalBytesUploaded
attr title  "Total of Bytes Uploaded, vector"
attr unit  B
vector 976  BasicTopology.peer[18].bitTorrentApp.bitTorrentClient.contentManager_26  TotalBytesDownloaded:vector  ETV
attr source  ContentManager_TotalBytesDownloaded
attr title  "Total of Bytes Downloaded, vector"
attr unit  B
vector 945  BasicTopology.peer[14].bitTorrentApp.bitTorrentClient.contentManager_26  TotalBytesUploaded:vector  ETV
attr source  ContentManager_TotalBytesUploaded
attr title  "Total of Bytes Uploaded, vector"
attr unit  B
vector 984  BasicTopology.peer[19].bitTorrentApp.bitTorrentClient.contentManager_26  TotalBytesDownloaded:vector  ETV
attr source  ContentManager_TotalBytesDownloaded
attr title  "Total of Bytes Downloaded, vector"
attr unit  B
vector 1023  BasicTopology.peer[24].bitTorrentApp.bitTorrentClient.contentManager_26  PiecesDownloaded:vector  ETV
attr source  ContentManager_PieceDownloaded
attr title  "Pieces Downloaded, vector"
vector 959  BasicTopology.peer[16].bitTorrentApp.bitTorrentClient.contentManager_26  PiecesDownloaded:vector  ETV
attr source  ContentManager_PieceDownloaded
attr title  "Pieces Downloaded, vector"
vector 961  BasicTopology.peer[16].bitTorrentApp.bitTorrentClient.contentManager_26  TotalBytesUploaded:vector  ETV
attr source  ContentManager_TotalBytesUploaded
attr title  "Total of Bytes Uploaded, vector"
attr unit  B
vector 1015  BasicTopology.peer[23].bitTorrentApp.bitTorrentClient.contentManager_26  PiecesDownloaded:vector  ETV
attr source  ContentManager_PieceDownloaded
attr title  "Pieces Downloaded, vector"
vector 975  BasicTopology.peer[18].bitTorrentApp.bitTorrentClient.contentManager_26  PiecesDownloaded:vector  ETV
attr source  ContentManager_PieceDownloaded
attr title  "Pieces Downloaded, vector"
vector 863  BasicTopology.peer[4].bitTorrentApp.bitTorrentClient.contentManager_26  PiecesDownloaded:vector  ETV
attr source  ContentManager_PieceDownloaded
attr title  "Pieces Downloaded, vector"
vector 919  BasicTopology.peer[11].bitTorrentApp.bitTorrentClient.contentManager_26  PiecesDownloaded:vector  ETV
attr source  ContentManager_PieceDownloaded
attr title  "Pieces Downloaded, vector"
vector 983  BasicTopology.peer[19].bitTorrentApp.bitTorrentClient.contentManager_26  PiecesDownloaded:vector  ETV
attr source  ContentManager_PieceDownloaded
attr title  "Pieces Downloaded, vector"
vector 865  BasicTopology.peer[4].bitTorrentApp.bitTorrentClient.contentManager_26  TotalBytesUploaded:vector  ETV
attr source  ContentManager_TotalBytesUploaded
attr title  "Total of Bytes Uploaded, vector"
attr unit  B
vector 872  BasicTopology.peer[5].bitTorrentApp.bitTorrentClient.contentManager_26  TotalBytesDownloaded:vector  ETV
attr source  ContentManager_TotalBytesDownloaded
attr title  "Total of Bytes Downloaded, vector"
attr unit  B
vector 895  BasicTopology.peer[8].bitTorrentApp.bitTorrentClient.contentManager_26  PiecesDownloaded:vector  ETV
attr source  ContentManager_PieceDownloaded
attr title  "Pieces Downloaded, vector"
vector 935  BasicTopology.peer[13].bitTorrentApp.bitTorrentClient.contentManager_26  PiecesDownloaded:vector  ETV
attr source  ContentManager_PieceDownloaded
attr title  "Pieces Downloaded, vector"
vector 928  BasicTopology.peer[12].bitTorrentApp.bitTorrentClient.contentManager_26  TotalBytesDownloaded:vector  ETV
attr source  ContentManager_TotalBytesDownloaded
attr title  "Total of Bytes Downloaded, vector"
attr unit  B
vector 921  BasicTopology.peer[11].bitTorrentApp.bitTorrentClient.contentManager_26  TotalBytesUploaded:vector  ETV
attr source  ContentManager_TotalBytesUploaded
attr title  "Total of Bytes Uploaded, vector"
attr unit  B
vector 1017  BasicTopology.peer[23].bitTorrentApp.bitTorrentClient.contentManager_26  TotalBytesUploaded:vector  ETV
attr source  ContentManager_TotalBytesUploaded
attr title  "Total of Bytes Uploaded, vector"
attr unit  B
vector 913  BasicTopology.peer[10].bitTorrentApp.bitTorrentClient.contentManager_26  TotalBytesUploaded:vector  ETV
attr source  ContentManager_TotalBytesUploaded
attr title  "Total of Bytes Uploaded, vector"
attr unit  B
vector 871  BasicTopology.peer[5].bitTorrentApp.bitTorrentClient.contentManager_26  PiecesDownloaded:vector  ETV
attr source  ContentManager_PieceDownloaded
attr title  "Pieces Downloaded, vector"
vector 1025  BasicTopology.peer[24].bitTorrentApp.bitTorrentClient.contentManager_26  TotalBytesUploaded:vector  ETV
attr source  ContentManager_TotalBytesUploaded
attr title  "Total of Bytes Uploaded, vector"
attr unit  B
vector 937  BasicTopology.peer[13].bitTorrentApp.bitTorrentClient.contentManager_26  TotalBytesUploaded:vector  ETV
attr source  ContentManager_TotalBytesUploaded
attr title  "Total of Bytes Uploaded, vector"
attr unit  B
vector 897  BasicTopology.peer[8].bitTorrentApp.bitTorrentClient.contentManager_26  TotalBytesUploaded:vector  ETV
attr source  ContentManager_TotalBytesUploaded
attr title  "Total of Bytes Uploaded, vector"
attr unit  B
vector 927  BasicTopology.peer[12].bitTorrentApp.bitTorrentClient.contentManager_26  PiecesDownloaded:vector  ETV
attr source  ContentManager_PieceDownloaded
attr title  "Pieces Downloaded, vector"
vector 881  BasicTopology.peer[6].bitTorrentApp.bitTorrentClient.contentManager_26  TotalBytesUploaded:vector  ETV
attr source  ContentManager_TotalBytesUploaded
attr title  "Total of Bytes Uploaded, vector"
attr unit  B
vector 873  BasicTopology.peer[5].bitTorrentApp.bitTorrentClient.contentManager_26  TotalBytesUploaded:vector  ETV
attr source  ContentManager_TotalBytesUploaded
attr title  "Total of Bytes Uploaded, vector"
attr unit  B
vector 977  BasicTopology.peer[18].bitTorrentApp.bitTorrentClient.contentManager_26  TotalBytesUploaded:vector  ETV
attr source  ContentManager_TotalBytesUploaded
attr title  "Total of Bytes Uploaded, vector"
attr unit  B
vector 929  BasicTopology.peer[12].bitTorrentApp.bitTorrentClient.contentManager_26  TotalBytesUploaded:vector  ETV
attr source  ContentManager_TotalBytesUploaded
attr title  "Total of Bytes Uploaded, vector"
attr unit  B
3	85	36001	36001
3	48277831	36084.774292741074	36084.774292741
5	86	36001	36001
5	49134764	36086.407837208643	36086.407837209
7	87	36001	36001
7	53294240	36094.458226947045	36094.458226947
9	88	36001	36001
9	80338345	36166.641635310859	36166.641635311
11	89	36001	36001
11	76215259	36144.661089564691	36144.661089565
13	90	36001	36001
13	81009856	36170.595693229134	36170.595693229
15	91	36001	36001
15	75708505	36143.305341989275	36143.305341989
17	92	36001	36001
17	72887925	36135.046234663831	36135.046234664
19	93	36001	36001
19	79714873	36159.737571824739	36159.737571825
21	94	36001	36001
21	81914707	36304.744940683015	36304.744940683
23	95	36001	36001
23	62716221	36113.479911046145	36113.479911046
25	96	36001	36001
25	73567915	36136.722907045783	36136.722907046
27	97	36001	36001
27	81795052	36302.484053240089	36302.48405324
29	98	36001	36001
29	77021616	36147.390798263255	36147.390798263
31	99	36001	36001
31	75576776	36142.43223973735	36142.432239737
33	100	36001	36001
33	77569832	36149.761499737198	36149.761499737
35	101	36001	36001
35	64120856	36116.221014846042	36116.221014846
37	102	36001	36001
37	75028067	36140.18315946595	36140.183159466
39	103	36001	36001
39	71266736	36131.321651530578	36131.321651531
41	104	36001	36001
41	74820306	36139.712660399978	36139.7126604
43	105	36001	36001
43	80491770	36167.215289648167	36167.215289648
45	106	36001	36001
45	46321347	36080.997606443692	36080.997606444
47	107	36001	36001
47	77922454	36152.67170318837	36152.671703188
49	108	36001	36001
49	73175739	36135.847976003296	36135.847976003
833	270686	36001.546947053829	32768
833	289482	36001.565708967632	65536
833	298674	36001.576376790484	98304
833	302887	36001.585015354287	131072
833	304785	36001.607948387174	163840
833	304787	36001.610283962155	196608
833	304817	36001.628133683839	229376
833	304819	36001.634925675281	262144
833	304840	36001.64672391597	294912
833	304842	36001.647031139982	327680
833	480120	36002.593693044515	360448
833	502085	36002.619729759983	393216
833	507918	36002.630068533638	425984
833	521820	36002.661577710514	458752
833	521927	36002.661866607882	491520
833	525664	36002.672500892468	524288
833	528986	36002.679745344808	557056
833	531042	36002.686258203058	589824
833	531442	36002.686982614569	622592
833	534405	36002.697766932802	655360
833	536031	36002.701608395613	688128
833	542003	36002.718836945448	720896
833	543715	36002.723488832884	753664
833	545546	36002.730714944462	786432
833	545555	36002.730740113693	819200
833	545829	36002.731555758299	851968
833	553422	36002.754099803953	884736
833	553574	36002.754430060373	917504
833	554040	36002.756321733009	950272
833	554473	36002.757810316932	983040
833	554553	36002.757975226422	1015808
833	560657	36002.777356789448	1048576
833	583835	36002.85283475952	1081344
833	600921	36002.912560063135	1114112
833	624471	36002.991182556438	1146880
833	665962	36003.091268199172	1179648
833	672293	36003.109802466877	1212416
833	675924	36003.120447963446	1245184
833	676067	36003.121004529578	1277952
833	676346	36003.121526953864	1310720
833	677157	36003.124244689414	1343488
833	678750	36003.128751463708	1376256
833	681593	36003.136303872045	1409024
833	684299	36003.142666278475	1441792
833	688236	36003.152231064033	1474560
833	688438	36003.152652574853	1507328
833	714490	36003.221705187333	1540096
833	743334	36003.292148558742	1572864
833	1210752	36004.349806052662	1605632
833	1232677	36004.421924254896	1638400
833	1249617	36004.474977898607	1671168
833	1342311	36004.59187498612	1703936
833	1435006	36004.739356007413	1736704
833	1819422	36005.670720451811	1769472
833	1849598	36005.71776294484	1802240
833	1858959	36005.732542290197	1835008
833	1866948	36005.754459970149	1867776
833	1877338	36005.788105570417	1900544
833	1893782	36005.823417798103	1933312
833	1914414	36005.856589948144	1966080
833	2236454	36006.745742893706	1998848
833	2274235	36006.847085058966	2031616
833	2301356	36006.890159417377	2064384
833	2304373	36006.894650377248	2097152
833	2314329	36006.911074177509	2129920
833	2322919	36006.924511136747	2162688
833	2332059	36006.938419147807	2195456
833	2332559	36006.939109138843	2228224
833	2362781	36006.983372953811	2260992
833	2450305	36007.093189319947	2293760
833	2473320	36007.154132331543	2326528
833	2477942	36007.168839008189	2359296
833	2815362	36007.830425411168	2392064
833	2831679	36007.890210231879	2424832
833	2848920	36007.954159239718	2457600
833	2863789	36008.011575724437	2490368
833	2896539	36008.073448765232	2523136
833	2936198	36008.148076865529	2555904
833	2958477	36008.213294319294	2588672
833	2984942	36008.279580489893	2621440
833	3004071	36008.334598588893	2654208
833	3024855	36008.396095516678	2686976
833	3047100	36008.461535236207	2719744
833	3105631	36008.590724647977	2752512
833	3286960	36009.141102071565	2785280
833	3356760	36009.244620530261	2818048
833	3875780	36010.199622770065	2850816
833	3896223	36010.228206816459	2883584
833	3972431	36010.336998285152	2916352
833	4032515	36010.450978617552	2949120
833	4173931	36010.701517601307	2981888
833	4241492	36010.813660970837	3014656
833	4442420	36011.261711208661	3047424
833	4484521	36011.328672666366	3080192
833	4505333	36011.364052936612	3112960
833	4651217	36011.61966655157	3145728
833	4703573	36011.750998676481	3178496
833	4797861	36011.925285915813	3211264
833	4867740	36012.033611167309	3244032
833	4939697	36012.142700528097	3276800
833	4979608	36012.206428988789	3309568
833	5066838	36012.398081945613	3342336
833	5092979	36012.440389235127	3375104
833	5100014	36012.452661169655	3407872
833	5107981	36012.465621727813	3440640
833	5141092	36012.514458582769	3473408
833	5145108	36012.520477298652	3506176
833	5863078	36013.590876981417	3538944
833	5891427	36013.633809732383	3571712
833	6470767	36014.632998194393	3604480
833	6490923	36014.662779644764	3637248
833	6509909	36014.690595257309	3670016
833	6519833	36014.705526157323	3702784
833	6571835	36014.828787198959	3735552
833	6589857	36014.890942254011	3768320
833	6641664	36014.985801739211	3801088
833	7122851	36015.752093462696	3833856
833	7123048	36015.752561309164	3866624
833	7161839	36015.806146647962	3899392
833	7181711	36015.831247008614	3932160
833	7201709	36015.85523824286	3964928
833	7504032	36016.432887406158	3997696
833	7802617	36016.900569843458	4030464
833	7832933	36016.946129448379	4063232
833	7840998	36016.955932946127	4096000
833	7869216	36016.994125042472	4128768
833	8363806	36018.023803785014	4161536
833	8997199	36019.050951820327	4194304
833	9006076	36019.063869032817	4227072
833	9022022	36019.088458991147	4259840
833	9056537	36019.133803510156	4292608
833	9099848	36019.194896616502	4325376
833	9135897	36019.242975374112	4358144
833	9522596	36019.836686280827	4390912
833	9816180	36020.294518315112	4423680
833	9834776	36020.324975517428	4456448
833	10155655	36021.015326937328	4489216
833	10236216	36021.138570872425	4521984
833	10366095	36021.383162596375	4554752
833	10426875	36021.466175689294	4587520
833	10458879	36021.509215428174	4620288
833	10468207	36021.521016889743	4653056
833	11102070	36022.566203579844	4685824
833	11108432	36022.578387612888	4718592
833	11465988	36023.193382475908	4751360
833	11577466	36023.348972785653	4784128
833	11661241	36023.455594166413	4816896
833	11767208	36023.662828536339	4849664
833	11778367	36023.678263144479	4882432
833	11794072	36023.704461037409	4915200
833	11820982	36023.749938238821	4947968
833	11823270	36023.754152791071	4980736
833	11838004	36023.777271627204	5013504
833	11863881	36023.827271276462	5046272
833	12251360	36024.484628510904	5079040
833	12326238	36024.594177824335	5111808
833	12371520	36024.668505351181	5144576
833	12454539	36024.825427233065	5177344
833	12997264	36025.854610226732	5210112
833	12999425	36025.860468764756	5242880
833	13027714	36025.911687972457	5275648
833	13053661	36025.943770026971	5308416
833	13603393	36026.816255572602	5341184
833	13648487	36026.877828106292	5373952
833	13709479	36026.966435081405	5406720
833	13730622	36026.995883743255	5439488
833	14295183	36028.029674326055	5472256
833	14301392	36028.040955957397	5505024
833	14992973	36029.16999628729	5537792
833	15101847	36029.326293164877	5570560
833	15813320	36030.437299992636	5603328
833	15872350	36030.526014680983	5636096
833	15922322	36030.60498460245	5668864
833	16252965	36031.392010114486	5701632
833	16255267	36031.395751279498	5734400
833	16255430	36031.39655881763	5767168
833	16255505	36031.396844398275	5799936
833	16255758	36031.397524118546	5832704
833	16256028	36031.398049772312	5865472
833	16256404	36031.39870803691	5898240
833	16263160	36031.409145703896	5931008
833	16263453	36031.409751125265	5963776
833	16263954	36031.410505146498	5996544
833	16377413	36031.597236974423	6029312
833	16380957	36031.60211106847	6062080
833	16393350	36031.62051936698	6094848
833	16393728	36031.620916547841	6127616
833	16393797	36031.620963186479	6160384
833	16394211	36031.621572982501	6193152
833	16394495	36031.621987752471	6225920
833	16394532	36031.622098935255	6258688
833	16394993	36031.623231736834	6291456
833	16395137	36031.623474232571	6324224
833	16505995	36031.788609062211	6356992
833	16663425	36032.089935853431	6389760
833	17074523	36032.820260036785	6422528
833	17112022	36032.907715403348	6455296
833	17154495	36032.977874618182	6488064
833	17208874	36033.067183506769	6520832
833	17274717	36033.166522637797	6553600
833	17910566	36034.200172237774	6586368
833	18599671	36035.322937297263	6619136