version 2
run Test-7-20200526-12:14:31-5213
attr configname Test
attr datetime 20200526-12:14:31
attr experiment "\"Simulation Test\""
attr inifile BasicConfig.ini
attr iterationvars ""
attr iterationvars2 $repetition=7
attr measurement "\"Peers: $peers, Rate: $rate\""
attr network BasicTopology
attr processid 5213
attr repetition 7
attr replication #7
attr resultdir results
attr runnumber 7
attr seedset 7

vector 3  BasicTopology.peer[1].bitTorrentApp.bitTorrentClient  DownloadComplete_Test:vector  ETV
attr source  BitTorrentClient_DownloadComplete_Test
attr title  "Descargas completas (prueba), vector"
vector 5  BasicTopology.peer[2].bitTorrentApp.bitTorrentClient  DownloadComplete_Test:vector  ETV
attr source  BitTorrentClient_DownloadComplete_Test
attr title  "Descargas completas (prueba), vector"
vector 7  BasicTopology.peer[3].bitTorrentApp.bitTorrentClient  DownloadComplete_Test:vector  ETV
attr source  BitTorrentClient_DownloadComplete_Test
attr title  "Descargas completas (prueba), vector"
vector 9  BasicTopology.peer[4].bitTorrentApp.bitTorrentClient  DownloadComplete_Test:vector  ETV
attr source  BitTorrentClient_DownloadComplete_Test
attr title  "Descargas completas (prueba), vector"
vector 11  BasicTopology.peer[5].bitTorrentApp.bitTorrentClient  DownloadComplete_Test:vector  ETV
attr source  BitTorrentClient_DownloadComplete_Test
attr title  "Descargas completas (prueba), vector"
vector 13  BasicTopology.peer[6].bitTorrentApp.bitTorrentClient  DownloadComplete_Test:vector  ETV
attr source  BitTorrentClient_DownloadComplete_Test
attr title  "Descargas completas (prueba), vector"
vector 15  BasicTopology.peer[7].bitTorrentApp.bitTorrentClient  DownloadComplete_Test:vector  ETV
attr source  BitTorrentClient_DownloadComplete_Test
attr title  "Descargas completas (prueba), vector"
vector 17  BasicTopology.peer[8].bitTorrentApp.bitTorrentClient  DownloadComplete_Test:vector  ETV
attr source  BitTorrentClient_DownloadComplete_Test
attr title  "Descargas completas (prueba), vector"
vector 19  BasicTopology.peer[9].bitTorrentApp.bitTorrentClient  DownloadComplete_Test:vector  ETV
attr source  BitTorrentClient_DownloadComplete_Test
attr title  "Descargas completas (prueba), vector"
vector 21  BasicTopology.peer[10].bitTorrentApp.bitTorrentClient  DownloadComplete_Test:vector  ETV
attr source  BitTorrentClient_DownloadComplete_Test
attr title  "Descargas completas (prueba), vector"
vector 23  BasicTopology.peer[11].bitTorrentApp.bitTorrentClient  DownloadComplete_Test:vector  ETV
attr source  BitTorrentClient_DownloadComplete_Test
attr title  "Descargas completas (prueba), vector"
vector 25  BasicTopology.peer[12].bitTorrentApp.bitTorrentClient  DownloadComplete_Test:vector  ETV
attr source  BitTorrentClient_DownloadComplete_Test
attr title  "Descargas completas (prueba), vector"
vector 27  BasicTopology.peer[13].bitTorrentApp.bitTorrentClient  DownloadComplete_Test:vector  ETV
attr source  BitTorrentClient_DownloadComplete_Test
attr title  "Descargas completas (prueba), vector"
vector 29  BasicTopology.peer[14].bitTorrentApp.bitTorrentClient  DownloadComplete_Test:vector  ETV
attr source  BitTorrentClient_DownloadComplete_Test
attr title  "Descargas completas (prueba), vector"
vector 31  BasicTopology.peer[15].bitTorrentApp.bitTorrentClient  DownloadComplete_Test:vector  ETV
attr source  BitTorrentClient_DownloadComplete_Test
attr title  "Descargas completas (prueba), vector"
vector 33  BasicTopology.peer[16].bitTorrentApp.bitTorrentClient  DownloadComplete_Test:vector  ETV
attr source  BitTorrentClient_DownloadComplete_Test
attr title  "Descargas completas (prueba), vector"
vector 35  BasicTopology.peer[17].bitTorrentApp.bitTorrentClient  DownloadComplete_Test:vector  ETV
attr source  BitTorrentClient_DownloadComplete_Test
attr title  "Descargas completas (prueba), vector"
vector 37  BasicTopology.peer[18].bitTorrentApp.bitTorrentClient  DownloadComplete_Test:vector  ETV
attr source  BitTorrentClient_DownloadComplete_Test
attr title  "Descargas completas (prueba), vector"
vector 39  BasicTopology.peer[19].bitTorrentApp.bitTorrentClient  DownloadComplete_Test:vector  ETV
attr source  BitTorrentClient_DownloadComplete_Test
attr title  "Descargas completas (prueba), vector"
vector 41  BasicTopology.peer[20].bitTorrentApp.bitTorrentClient  DownloadComplete_Test:vector  ETV
attr source  BitTorrentClient_DownloadComplete_Test
attr title  "Descargas completas (prueba), vector"
vector 43  BasicTopology.peer[21].bitTorrentApp.bitTorrentClient  DownloadComplete_Test:vector  ETV
attr source  BitTorrentClient_DownloadComplete_Test
attr title  "Descargas completas (prueba), vector"
vector 45  BasicTopology.peer[22].bitTorrentApp.bitTorrentClient  DownloadComplete_Test:vector  ETV
attr source  BitTorrentClient_DownloadComplete_Test
attr title  "Descargas completas (prueba), vector"
vector 47  BasicTopology.peer[23].bitTorrentApp.bitTorrentClient  DownloadComplete_Test:vector  ETV
attr source  BitTorrentClient_DownloadComplete_Test
attr title  "Descargas completas (prueba), vector"
vector 49  BasicTopology.peer[24].bitTorrentApp.bitTorrentClient  DownloadComplete_Test:vector  ETV
attr source  BitTorrentClient_DownloadComplete_Test
attr title  "Descargas completas (prueba), vector"
vector 833  BasicTopology.peer[0].bitTorrentApp.bitTorrentClient.contentManager_26  TotalBytesUploaded:vector  ETV
attr source  ContentManager_TotalBytesUploaded
attr title  "Total of Bytes Uploaded, vector"
attr unit  B
vector 992  BasicTopology.peer[20].bitTorrentApp.bitTorrentClient.contentManager_26  TotalBytesDownloaded:vector  ETV
attr source  ContentManager_TotalBytesDownloaded
attr title  "Total of Bytes Downloaded, vector"
attr unit  B
vector 991  BasicTopology.peer[20].bitTorrentApp.bitTorrentClient.contentManager_26  PiecesDownloaded:vector  ETV
attr source  ContentManager_PieceDownloaded
attr title  "Pieces Downloaded, vector"
vector 993  BasicTopology.peer[20].bitTorrentApp.bitTorrentClient.contentManager_26  TotalBytesUploaded:vector  ETV
attr source  ContentManager_TotalBytesUploaded
attr title  "Total of Bytes Uploaded, vector"
attr unit  B
vector 840  BasicTopology.peer[1].bitTorrentApp.bitTorrentClient.contentManager_26  TotalBytesDownloaded:vector  ETV
attr source  ContentManager_TotalBytesDownloaded
attr title  "Total of Bytes Downloaded, vector"
attr unit  B
vector 839  BasicTopology.peer[1].bitTorrentApp.bitTorrentClient.contentManager_26  PiecesDownloaded:vector  ETV
attr source  ContentManager_PieceDownloaded
attr title  "Pieces Downloaded, vector"
vector 841  BasicTopology.peer[1].bitTorrentApp.bitTorrentClient.contentManager_26  TotalBytesUploaded:vector  ETV
attr source  ContentManager_TotalBytesUploaded
attr title  "Total of Bytes Uploaded, vector"
attr unit  B
vector 1008  BasicTopology.peer[22].bitTorrentApp.bitTorrentClient.contentManager_26  TotalBytesDownloaded:vector  ETV
attr source  ContentManager_TotalBytesDownloaded
attr title  "Total of Bytes Downloaded, vector"
attr unit  B
vector 1016  BasicTopology.peer[23].bitTorrentApp.bitTorrentClient.contentManager_26  TotalBytesDownloaded:vector  ETV
attr source  ContentManager_TotalBytesDownloaded
attr title  "Total of Bytes Downloaded, vector"
attr unit  B
vector 1015  BasicTopology.peer[23].bitTorrentApp.bitTorrentClient.contentManager_26  PiecesDownloaded:vector  ETV
attr source  ContentManager_PieceDownloaded
attr title  "Pieces Downloaded, vector"
vector 1017  BasicTopology.peer[23].bitTorrentApp.bitTorrentClient.contentManager_26  TotalBytesUploaded:vector  ETV
attr source  ContentManager_TotalBytesUploaded
attr title  "Total of Bytes Uploaded, vector"
attr unit  B
vector 872  BasicTopology.peer[5].bitTorrentApp.bitTorrentClient.contentManager_26  TotalBytesDownloaded:vector  ETV
attr source  ContentManager_TotalBytesDownloaded
attr title  "Total of Bytes Downloaded, vector"
attr unit  B
vector 920  BasicTopology.peer[11].bitTorrentApp.bitTorrentClient.contentManager_26  TotalBytesDownloaded:vector  ETV
attr source  ContentManager_TotalBytesDownloaded
attr title  "Total of Bytes Downloaded, vector"
attr unit  B
vector 848  BasicTopology.peer[2].bitTorrentApp.bitTorrentClient.contentManager_26  TotalBytesDownloaded:vector  ETV
attr source  ContentManager_TotalBytesDownloaded
attr title  "Total of Bytes Downloaded, vector"
attr unit  B
vector 880  BasicTopology.peer[6].bitTorrentApp.bitTorrentClient.contentManager_26  TotalBytesDownloaded:vector  ETV
attr source  ContentManager_TotalBytesDownloaded
attr title  "Total of Bytes Downloaded, vector"
attr unit  B
vector 960  BasicTopology.peer[16].bitTorrentApp.bitTorrentClient.contentManager_26  TotalBytesDownloaded:vector  ETV
attr source  ContentManager_TotalBytesDownloaded
attr title  "Total of Bytes Downloaded, vector"
attr unit  B
vector 919  BasicTopology.peer[11].bitTorrentApp.bitTorrentClient.contentManager_26  PiecesDownloaded:vector  ETV
attr source  ContentManager_PieceDownloaded
attr title  "Pieces Downloaded, vector"
vector 921  BasicTopology.peer[11].bitTorrentApp.bitTorrentClient.contentManager_26  TotalBytesUploaded:vector  ETV
attr source  ContentManager_TotalBytesUploaded
attr title  "Total of Bytes Uploaded, vector"
attr unit  B
vector 984  BasicTopology.peer[19].bitTorrentApp.bitTorrentClient.contentManager_26  TotalBytesDownloaded:vector  ETV
attr source  ContentManager_TotalBytesDownloaded
attr title  "Total of Bytes Downloaded, vector"
attr unit  B
vector 888  BasicTopology.peer[7].bitTorrentApp.bitTorrentClient.contentManager_26  TotalBytesDownloaded:vector  ETV
attr source  ContentManager_TotalBytesDownloaded
attr title  "Total of Bytes Downloaded, vector"
attr unit  B
vector 864  BasicTopology.peer[4].bitTorrentApp.bitTorrentClient.contentManager_26  TotalBytesDownloaded:vector  ETV
attr source  ContentManager_TotalBytesDownloaded
attr title  "Total of Bytes Downloaded, vector"
attr unit  B
vector 871  BasicTopology.peer[5].bitTorrentApp.bitTorrentClient.contentManager_26  PiecesDownloaded:vector  ETV
attr source  ContentManager_PieceDownloaded
attr title  "Pieces Downloaded, vector"
vector 873  BasicTopology.peer[5].bitTorrentApp.bitTorrentClient.contentManager_26  TotalBytesUploaded:vector  ETV
attr source  ContentManager_TotalBytesUploaded
attr title  "Total of Bytes Uploaded, vector"
attr unit  B
vector 912  BasicTopology.peer[10].bitTorrentApp.bitTorrentClient.contentManager_26  TotalBytesDownloaded:vector  ETV
attr source  ContentManager_TotalBytesDownloaded
attr title  "Total of Bytes Downloaded, vector"
attr unit  B
vector 944  BasicTopology.peer[14].bitTorrentApp.bitTorrentClient.contentManager_26  TotalBytesDownloaded:vector  ETV
attr source  ContentManager_TotalBytesDownloaded
attr title  "Total of Bytes Downloaded, vector"
attr unit  B
vector 856  BasicTopology.peer[3].bitTorrentApp.bitTorrentClient.contentManager_26  TotalBytesDownloaded:vector  ETV
attr source  ContentManager_TotalBytesDownloaded
attr title  "Total of Bytes Downloaded, vector"
attr unit  B
vector 928  BasicTopology.peer[12].bitTorrentApp.bitTorrentClient.contentManager_26  TotalBytesDownloaded:vector  ETV
attr source  ContentManager_TotalBytesDownloaded
attr title  "Total of Bytes Downloaded, vector"
attr unit  B
vector 904  BasicTopology.peer[9].bitTorrentApp.bitTorrentClient.contentManager_26  TotalBytesDownloaded:vector  ETV
attr source  ContentManager_TotalBytesDownloaded
attr title  "Total of Bytes Downloaded, vector"
attr unit  B
vector 936  BasicTopology.peer[13].bitTorrentApp.bitTorrentClient.contentManager_26  TotalBytesDownloaded:vector  ETV
attr source  ContentManager_TotalBytesDownloaded
attr title  "Total of Bytes Downloaded, vector"
attr unit  B
vector 976  BasicTopology.peer[18].bitTorrentApp.bitTorrentClient.contentManager_26  TotalBytesDownloaded:vector  ETV
attr source  ContentManager_TotalBytesDownloaded
attr title  "Total of Bytes Downloaded, vector"
attr unit  B
vector 1007  BasicTopology.peer[22].bitTorrentApp.bitTorrentClient.contentManager_26  PiecesDownloaded:vector  ETV
attr source  ContentManager_PieceDownloaded
attr title  "Pieces Downloaded, vector"
vector 879  BasicTopology.peer[6].bitTorrentApp.bitTorrentClient.contentManager_26  PiecesDownloaded:vector  ETV
attr source  ContentManager_PieceDownloaded
attr title  "Pieces Downloaded, vector"
vector 896  BasicTopology.peer[8].bitTorrentApp.bitTorrentClient.contentManager_26  TotalBytesDownloaded:vector  ETV
attr source  ContentManager_TotalBytesDownloaded
attr title  "Total of Bytes Downloaded, vector"
attr unit  B
vector 935  BasicTopology.peer[13].bitTorrentApp.bitTorrentClient.contentManager_26  PiecesDownloaded:vector  ETV
attr source  ContentManager_PieceDownloaded
attr title  "Pieces Downloaded, vector"
vector 911  BasicTopology.peer[10].bitTorrentApp.bitTorrentClient.contentManager_26  PiecesDownloaded:vector  ETV
attr source  ContentManager_PieceDownloaded
attr title  "Pieces Downloaded, vector"
vector 913  BasicTopology.peer[10].bitTorrentApp.bitTorrentClient.contentManager_26  TotalBytesUploaded:vector  ETV
attr source  ContentManager_TotalBytesUploaded
attr title  "Total of Bytes Uploaded, vector"
attr unit  B
vector 1000  BasicTopology.peer[21].bitTorrentApp.bitTorrentClient.contentManager_26  TotalBytesDownloaded:vector  ETV
attr source  ContentManager_TotalBytesDownloaded
attr title  "Total of Bytes Downloaded, vector"
attr unit  B
vector 863  BasicTopology.peer[4].bitTorrentApp.bitTorrentClient.contentManager_26  PiecesDownloaded:vector  ETV
attr source  ContentManager_PieceDownloaded
attr title  "Pieces Downloaded, vector"
vector 865  BasicTopology.peer[4].bitTorrentApp.bitTorrentClient.contentManager_26  TotalBytesUploaded:vector  ETV
attr source  ContentManager_TotalBytesUploaded
attr title  "Total of Bytes Uploaded, vector"
attr unit  B
vector 937  BasicTopology.peer[13].bitTorrentApp.bitTorrentClient.contentManager_26  TotalBytesUploaded:vector  ETV
attr source  ContentManager_TotalBytesUploaded
attr title  "Total of Bytes Uploaded, vector"
attr unit  B
vector 855  BasicTopology.peer[3].bitTorrentApp.bitTorrentClient.contentManager_26  PiecesDownloaded:vector  ETV
attr source  ContentManager_PieceDownloaded
attr title  "Pieces Downloaded, vector"
vector 857  BasicTopology.peer[3].bitTorrentApp.bitTorrentClient.contentManager_26  TotalBytesUploaded:vector  ETV
attr source  ContentManager_TotalBytesUploaded
attr title  "Total of Bytes Uploaded, vector"
attr unit  B
vector 903  BasicTopology.peer[9].bitTorrentApp.bitTorrentClient.contentManager_26  PiecesDownloaded:vector  ETV
attr source  ContentManager_PieceDownloaded
attr title  "Pieces Downloaded, vector"
vector 952  BasicTopology.peer[15].bitTorrentApp.bitTorrentClient.contentManager_26  TotalBytesDownloaded:vector  ETV
attr source  ContentManager_TotalBytesDownloaded
attr title  "Total of Bytes Downloaded, vector"
attr unit  B
vector 959  BasicTopology.peer[16].bitTorrentApp.bitTorrentClient.contentManager_26  PiecesDownloaded:vector  ETV
attr source  ContentManager_PieceDownloaded
attr title  "Pieces Downloaded, vector"
vector 968  BasicTopology.peer[17].bitTorrentApp.bitTorrentClient.contentManager_26  TotalBytesDownloaded:vector  ETV
attr source  ContentManager_TotalBytesDownloaded
attr title  "Total of Bytes Downloaded, vector"
attr unit  B
vector 999  BasicTopology.peer[21].bitTorrentApp.bitTorrentClient.contentManager_26  PiecesDownloaded:vector  ETV
attr source  ContentManager_PieceDownloaded
attr title  "Pieces Downloaded, vector"
vector 1001  BasicTopology.peer[21].bitTorrentApp.bitTorrentClient.contentManager_26  TotalBytesUploaded:vector  ETV
attr source  ContentManager_TotalBytesUploaded
attr title  "Total of Bytes Uploaded, vector"
attr unit  B
vector 951  BasicTopology.peer[15].bitTorrentApp.bitTorrentClient.contentManager_26  PiecesDownloaded:vector  ETV
attr source  ContentManager_PieceDownloaded
attr title  "Pieces Downloaded, vector"
vector 975  BasicTopology.peer[18].bitTorrentApp.bitTorrentClient.contentManager_26  PiecesDownloaded:vector  ETV
attr source  ContentManager_PieceDownloaded
attr title  "Pieces Downloaded, vector"
vector 881  BasicTopology.peer[6].bitTorrentApp.bitTorrentClient.contentManager_26  TotalBytesUploaded:vector  ETV
attr source  ContentManager_TotalBytesUploaded
attr title  "Total of Bytes Uploaded, vector"
attr unit  B
vector 967  BasicTopology.peer[17].bitTorrentApp.bitTorrentClient.contentManager_26  PiecesDownloaded:vector  ETV
attr source  ContentManager_PieceDownloaded
attr title  "Pieces Downloaded, vector"
vector 1009  BasicTopology.peer[22].bitTorrentApp.bitTorrentClient.contentManager_26  TotalBytesUploaded:vector  ETV
attr source  ContentManager_TotalBytesUploaded
attr title  "Total of Bytes Uploaded, vector"
attr unit  B
vector 1024  BasicTopology.peer[24].bitTorrentApp.bitTorrentClient.contentManager_26  TotalBytesDownloaded:vector  ETV
attr source  ContentManager_TotalBytesDownloaded
attr title  "Total of Bytes Downloaded, vector"
attr unit  B
vector 895  BasicTopology.peer[8].bitTorrentApp.bitTorrentClient.contentManager_26  PiecesDownloaded:vector  ETV
attr source  ContentManager_PieceDownloaded
attr title  "Pieces Downloaded, vector"
vector 897  BasicTopology.peer[8].bitTorrentApp.bitTorrentClient.contentManager_26  TotalBytesUploaded:vector  ETV
attr source  ContentManager_TotalBytesUploaded
attr title  "Total of Bytes Uploaded, vector"
attr unit  B
vector 847  BasicTopology.peer[2].bitTorrentApp.bitTorrentClient.contentManager_26  PiecesDownloaded:vector  ETV
attr source  ContentManager_PieceDownloaded
attr title  "Pieces Downloaded, vector"
vector 849  BasicTopology.peer[2].bitTorrentApp.bitTorrentClient.contentManager_26  TotalBytesUploaded:vector  ETV
attr source  ContentManager_TotalBytesUploaded
attr title  "Total of Bytes Uploaded, vector"
attr unit  B
vector 887  BasicTopology.peer[7].bitTorrentApp.bitTorrentClient.contentManager_26  PiecesDownloaded:vector  ETV
attr source  ContentManager_PieceDownloaded
attr title  "Pieces Downloaded, vector"
vector 889  BasicTopology.peer[7].bitTorrentApp.bitTorrentClient.contentManager_26  TotalBytesUploaded:vector  ETV
attr source  ContentManager_TotalBytesUploaded
attr title  "Total of Bytes Uploaded, vector"
attr unit  B
vector 1023  BasicTopology.peer[24].bitTorrentApp.bitTorrentClient.contentManager_26  PiecesDownloaded:vector  ETV
attr source  ContentManager_PieceDownloaded
attr title  "Pieces Downloaded, vector"
vector 943  BasicTopology.peer[14].bitTorrentApp.bitTorrentClient.contentManager_26  PiecesDownloaded:vector  ETV
attr source  ContentManager_PieceDownloaded
attr title  "Pieces Downloaded, vector"
vector 945  BasicTopology.peer[14].bitTorrentApp.bitTorrentClient.contentManager_26  TotalBytesUploaded:vector  ETV
attr source  ContentManager_TotalBytesUploaded
attr title  "Total of Bytes Uploaded, vector"
attr unit  B
vector 983  BasicTopology.peer[19].bitTorrentApp.bitTorrentClient.contentManager_26  PiecesDownloaded:vector  ETV
attr source  ContentManager_PieceDownloaded
attr title  "Pieces Downloaded, vector"
vector 927  BasicTopology.peer[12].bitTorrentApp.bitTorrentClient.contentManager_26  PiecesDownloaded:vector  ETV
attr source  ContentManager_PieceDownloaded
attr title  "Pieces Downloaded, vector"
vector 977  BasicTopology.peer[18].bitTorrentApp.bitTorrentClient.contentManager_26  TotalBytesUploaded:vector  ETV
attr source  ContentManager_TotalBytesUploaded
attr title  "Total of Bytes Uploaded, vector"
attr unit  B
vector 969  BasicTopology.peer[17].bitTorrentApp.bitTorrentClient.contentManager_26  TotalBytesUploaded:vector  ETV
attr source  ContentManager_TotalBytesUploaded
attr title  "Total of Bytes Uploaded, vector"
attr unit  B
vector 929  BasicTopology.peer[12].bitTorrentApp.bitTorrentClient.contentManager_26  TotalBytesUploaded:vector  ETV
attr source  ContentManager_TotalBytesUploaded
attr title  "Total of Bytes Uploaded, vector"
attr unit  B
vector 1025  BasicTopology.peer[24].bitTorrentApp.bitTorrentClient.contentManager_26  TotalBytesUploaded:vector  ETV
attr source  ContentManager_TotalBytesUploaded
attr title  "Total of Bytes Uploaded, vector"
attr unit  B
vector 985  BasicTopology.peer[19].bitTorrentApp.bitTorrentClient.contentManager_26  TotalBytesUploaded:vector  ETV
attr source  ContentManager_TotalBytesUploaded
attr title  "Total of Bytes Uploaded, vector"
attr unit  B
vector 953  BasicTopology.peer[15].bitTorrentApp.bitTorrentClient.contentManager_26  TotalBytesUploaded:vector  ETV
attr source  ContentManager_TotalBytesUploaded
attr title  "Total of Bytes Uploaded, vector"
attr unit  B
3	85	36001	36001
3	20071160	36035.651088423342	36035.651088423
5	86	36001	36001
5	55529868	36097.217609699532	36097.2176097
7	87	36001	36001
7	68713231	36125.086013256501	36125.086013257
9	88	36001	36001
9	72120369	36133.55419029411	36133.554190294
11	89	36001	36001
11	74640714	36140.294559253512	36140.294559254
13	90	36001	36001
13	74669783	36140.421736038157	36140.421736038
15	91	36001	36001
15	73029057	36136.261002781816	36136.261002782
17	92	36001	36001
17	74118920	36138.742621689572	36138.74262169
19	93	36001	36001
19	76412982	36303.381327116939	36303.381327117
21	94	36001	36001
21	64773463	36116.362134401982	36116.362134402
23	95	36001	36001
23	63869535	36114.437140568651	36114.437140569
25	96	36001	36001
25	62530359	36111.781434980234	36111.78143498
27	97	36001	36001
27	65895236	36118.669534559233	36118.669534559
29	98	36001	36001
29	74223378	36139.195155807519	36139.195155808
31	99	36001	36001
31	76385842	36302.384295864189	36302.384295864
33	100	36001	36001
33	66314059	36119.722630982423	36119.722630982
35	101	36001	36001
35	74981989	36142.57213434185	36142.572134342
37	102	36001	36001
37	70162494	36128.588556497047	36128.588556497
39	103	36001	36001
39	69452814	36126.91387951002	36126.91387951
41	104	36001	36001
41	25502642	36044.332930579895	36044.33293058
43	105	36001	36001
43	33730737	36057.738711112004	36057.738711112
45	106	36001	36001
45	56316955	36098.943742789688	36098.94374279
47	107	36001	36001
47	51807235	36089.83667877986	36089.83667878
49	108	36001	36001
49	72282490	36134.104375655239	36134.104375655
833	92149	36001.062662333631	32768
833	92178	36001.062669255866	65536
833	92939	36001.063286831492	98304
833	107782	36001.075966545931	131072
833	119646	36001.086879104443	163840
833	124378	36001.090985974418	196608
833	124988	36001.091568744722	229376
833	127181	36001.093760591758	262144
833	127668	36001.09432480297	294912
833	129206	36001.095956700888	327680
833	425373	36002.544722388722	360448
833	471816	36002.63403243752	393216
833	496017	36002.692323317966	425984
833	510307	36002.738582646675	458752
833	525330	36002.803629370547	491520
833	542560	36002.873139055521	524288
833	554514	36002.924209620925	557056
833	576691	36002.994997127329	589824
833	651145	36003.150276014458	622592
833	659957	36003.174191564035	655360
833	660230	36003.175136197865	688128
833	660332	36003.175419825322	720896
833	663228	36003.186138067958	753664
833	667181	36003.199143497151	786432
833	671186	36003.210828877964	819200
833	674117	36003.222295142921	851968
833	674121	36003.229506067891	884736
833	674125	36003.230539552838	917504
833	674127	36003.230731191949	950272
833	674130	36003.23473638428	983040
833	674132	36003.235195009061	1015808
833	674136	36003.235491237089	1048576
833	674138	36003.23599021722	1081344
833	674144	36003.268487998905	1114112
833	674147	36003.275234544255	1146880
833	674149	36003.27538802204	1179648
833	674151	36003.286336605905	1212416
833	674155	36003.311306468267	1245184
833	674157	36003.311447816363	1277952
833	674159	36003.314291422599	1310720
833	674161	36003.315585070399	1343488
833	674164	36003.328670356936	1376256
833	674166	36003.330821256998	1409024
833	674169	36003.342383152023	1441792
833	674171	36003.34872890767	1474560
833	674173	36003.357205947362	1507328
833	674175	36003.358027145018	1540096
833	674177	36003.358665534707	1572864
833	803583	36004.121042709922	1605632
833	872102	36004.209735419432	1638400
833	876662	36004.22703522711	1671168
833	894823	36004.28560563073	1703936
833	901293	36004.307904013176	1736704
833	901512	36004.308758499456	1769472
833	910913	36004.340376749432	1802240
833	924333	36004.385410312043	1835008
833	930021	36004.398406607316	1867776
833	935622	36004.410873798806	1900544
833	967501	36004.481866464857	1933312
833	973425	36004.494334215192	1966080
833	1389445	36005.512973102919	1998848
833	1403887	36005.538099923746	2031616
833	1422960	36005.565177135798	2064384
833	1448697	36005.605278056045	2097152
833	1457892	36005.620743984236	2129920
833	1544419	36005.871528233845	2162688
833	1856369	36006.705682559114	2195456
833	1863410	36006.719286578495	2228224
833	1973151	36006.965642046788	2260992
833	2076953	36007.120235839163	2293760
833	2181371	36007.304734952867	2326528
833	2272695	36007.469188760469	2359296
833	2436000	36007.79149389363	2392064
833	2504545	36007.92407028352	2424832
833	2535594	36007.979748508774	2457600
833	2559515	36008.032517522055	2490368
833	2581729	36008.077742356023	2523136
833	2612077	36008.131212758182	2555904
833	2636242	36008.169370190116	2588672
833	2648300	36008.189595565609	2621440
833	2695508	36008.249560365358	2654208
833	2700778	36008.255547992822	2686976
833	2731215	36008.296378412311	2719744
833	2747982	36008.317266678802	2752512
833	2852873	36008.502267828377	2785280
833	2932962	36008.634428843478	2818048
833	2999800	36008.746114959762	2850816
833	3042600	36008.822540534303	2883584
833	3112939	36008.944204655532	2916352
833	3137230	36008.990289976498	2949120
833	3195168	36009.085821470083	2981888
833	3222913	36009.14273377835	3014656
833	3241953	36009.191169363787	3047424
833	3268786	36009.268148869898	3080192
833	3398169	36009.583228155622	3112960
833	3846287	36010.339009504007	3145728
833	3917851	36010.465383835877	3178496
833	4412390	36011.267343564254	3211264
833	4458075	36011.346413650241	3244032
833	4485588	36011.389712821104	3276800
833	4542018	36011.48407421825	3309568
833	4590904	36011.56921618835	3342336
833	5100770	36012.411047264669	3375104
833	5121892	36012.459776113416	3407872
833	5139654	36012.494060510848	3440640
833	5172570	36012.568258474952	3473408
833	5181272	36012.589593293624	3506176
833	5201555	36012.629564971727	3538944
833	5231959	36012.682270947316	3571712
833	5256607	36012.7209520215	3604480
833	5781497	36013.710560329615	3637248
833	5822309	36013.824489711552	3670016
833	5858436	36013.908556226972	3702784
833	6517638	36014.959179262431	3735552
833	6577930	36015.061306976544	3768320
833	6688433	36015.226799099149	3801088
833	6731840	36015.290852087428	3833856
833	7041550	36015.745923544359	3866624
833	7378336	36016.374813233321	3899392
833	7422586	36016.446008985626	3932160
833	7474965	36016.509538016194	3964928
833	7661798	36016.820019586813	3997696
833	7663044	36016.821794852567	4030464
833	7671123	36016.832932811528	4063232
833	7721895	36016.899963877423	4096000
833	7727946	36016.908402252418	4128768
833	8173152	36017.613508967509	4161536
833	8324075	36017.926492423354	4194304
833	8343488	36017.958349378471	4227072
833	8370740	36017.998742552241	4259840
833	8395695	36018.031985004341	4292608
833	8415929	36018.056639883286	4325376
833	8435051	36018.079485614483	4358144
833	8462056	36018.112310782762	4390912
833	8496897	36018.149571188314	4423680
833	8525914	36018.180185905567	4456448
833	8554371	36018.212018428695	4489216
833	8579258	36018.240647191372	4521984
833	8624838	36018.296672097449	4554752
833	8635651	36018.3092315781	4587520
833	8660770	36018.336685795705	4620288
833	8683294	36018.362939897533	4653056
833	9743476	36019.905366016419	4685824
833	9792849	36020.002105359117	4718592
833	9869881	36020.120559347271	4751360
833	10216285	36020.742701109794	4784128
833	10245450	36020.802257889947	4816896
833	10279898	36020.871727876396	4849664
833	10325016	36020.945929450803	4882432
833	10575194	36021.415087250029	4915200
833	10606132	36021.458362522325	4947968
833	10633820	36021.493376465093	4980736
833	10662881	36021.526760640158	5013504
833	10698514	36021.582624880602	5046272
833	10720614	36021.61584228305	5079040
833	11040257	36022.074214712018	5111808
833	11456217	36022.65870303231	5144576
833	11495821	36022.707675601541	5177344
833	11507223	36022.721355553612	5210112
833	11857553	36023.175712016432	5242880
833	11953426	36023.341595936739	5275648
833	11996609	36023.413774819308	5308416
833	12199457	36023.754899407314	5341184
833	12241965	36023.828357729837	5373952
833	13205206	36025.257084194586	5406720
833	13215023	36025.271245042469	5439488
833	13216553	36025.273749917407	5472256
833	13225357	36025.287326292928	5505024
833	13225619	36025.287542790194	5537792
833	13240795	36025.306161078526	5570560
833	13265212	36025.336813651491	5603328
833	13266412	36025.338150446697	5636096
833	13277216	36025.349585608831	5668864
833	13286337	36025.364421710691	5701632
833	13298849	36025.390775567693	5734400
833	13378377	36025.504539481219	5767168
833	13468228	36025.635782264994	5799936
833	14244954	36026.850491300595	5832704
833	14310399	36026.946225094414	5865472
833	15009898	36028.071725861507	5898240
833	17047600	36031.039612914549	5931008
833	17063102	36031.060118011309	5963776
833	17063612	36031.060807658845	5996544
833	17064737	36031.0623724416	6029312
833	17072934	36031.07343667946	6062080
833	17086458	36031.09316804862	6094848
833	17087645	36031.094871246068	6127616
833	17103236	36031.118488930965	6160384
833	17111618	36031.131951797605	6193152
833	17114619	36031.136080173052	6225920
833	18138744	36032.627232717999	6258688
833	18846484	36033.742721648589	6291456
833	18913099	36033.839200287944	6324224
833	19611510	36034.963921377731	6356992
833	20322362	36036.145792080303	6389760
833	20368414	36036.22013150379	6422528
833	21032321	36037.323894994687	6455296
833	21073792	36037.386876487629	6488064
833	21124717	36037.460714174223	6520832
833	22154569	36039.100608164587	6553600
833	22208934	36039.166733110994	6586368
833	24200479	36042.140946592329	6619136
833	24215555	36042.163247188115	6651904