version 2
run Test-11-20200526-12:15:00-5254
attr configname Test
attr datetime 20200526-12:15:00
attr experiment "\"Simulation Test\""
attr inifile BasicConfig.ini
attr iterationvars ""
attr iterationvars2 $repetition=11
attr measurement "\"Peers: $peers, Rate: $rate\""
attr network BasicTopology
attr processid 5254
attr repetition 11
attr replication #11
attr resultdir results
attr runnumber 11
attr seedset 11

vector 3  BasicTopology.peer[1].bitTorrentApp.bitTorrentClient  DownloadComplete_Test:vector  ETV
attr source  BitTorrentClient_DownloadComplete_Test
attr title  "Descargas completas (prueba), vector"
vector 5  BasicTopology.peer[2].bitTorrentApp.bitTorrentClient  DownloadComplete_Test:vector  ETV
attr source  BitTorrentClient_DownloadComplete_Test
attr title  "Descargas completas (prueba), vector"
vector 7  BasicTopology.peer[3].bitTorrentApp.bitTorrentClient  DownloadComplete_Test:vector  ETV
attr source  BitTorrentClient_DownloadComplete_Test
attr title  "Descargas completas (prueba), vector"
vector 9  BasicTopology.peer[4].bitTorrentApp.bitTorrentClient  DownloadComplete_Test:vector  ETV
attr source  BitTorrentClient_DownloadComplete_Test
attr title  "Descargas completas (prueba), vector"
vector 11  BasicTopology.peer[5].bitTorrentApp.bitTorrentClient  DownloadComplete_Test:vector  ETV
attr source  BitTorrentClient_DownloadComplete_Test
attr title  "Descargas completas (prueba), vector"
vector 13  BasicTopology.peer[6].bitTorrentApp.bitTorrentClient  DownloadComplete_Test:vector  ETV
attr source  BitTorrentClient_DownloadComplete_Test
attr title  "Descargas completas (prueba), vector"
vector 15  BasicTopology.peer[7].bitTorrentApp.bitTorrentClient  DownloadComplete_Test:vector  ETV
attr source  BitTorrentClient_DownloadComplete_Test
attr title  "Descargas completas (prueba), vector"
vector 17  BasicTopology.peer[8].bitTorrentApp.bitTorrentClient  DownloadComplete_Test:vector  ETV
attr source  BitTorrentClient_DownloadComplete_Test
attr title  "Descargas completas (prueba), vector"
vector 19  BasicTopology.peer[9].bitTorrentApp.bitTorrentClient  DownloadComplete_Test:vector  ETV
attr source  BitTorrentClient_DownloadComplete_Test
attr title  "Descargas completas (prueba), vector"
vector 21  BasicTopology.peer[10].bitTorrentApp.bitTorrentClient  DownloadComplete_Test:vector  ETV
attr source  BitTorrentClient_DownloadComplete_Test
attr title  "Descargas completas (prueba), vector"
vector 23  BasicTopology.peer[11].bitTorrentApp.bitTorrentClient  DownloadComplete_Test:vector  ETV
attr source  BitTorrentClient_DownloadComplete_Test
attr title  "Descargas completas (prueba), vector"
vector 25  BasicTopology.peer[12].bitTorrentApp.bitTorrentClient  DownloadComplete_Test:vector  ETV
attr source  BitTorrentClient_DownloadComplete_Test
attr title  "Descargas completas (prueba), vector"
vector 27  BasicTopology.peer[13].bitTorrentApp.bitTorrentClient  DownloadComplete_Test:vector  ETV
attr source  BitTorrentClient_DownloadComplete_Test
attr title  "Descargas completas (prueba), vector"
vector 29  BasicTopology.peer[14].bitTorrentApp.bitTorrentClient  DownloadComplete_Test:vector  ETV
attr source  BitTorrentClient_DownloadComplete_Test
attr title  "Descargas completas (prueba), vector"
vector 31  BasicTopology.peer[15].bitTorrentApp.bitTorrentClient  DownloadComplete_Test:vector  ETV
attr source  BitTorrentClient_DownloadComplete_Test
attr title  "Descargas completas (prueba), vector"
vector 33  BasicTopology.peer[16].bitTorrentApp.bitTorrentClient  DownloadComplete_Test:vector  ETV
attr source  BitTorrentClient_DownloadComplete_Test
attr title  "Descargas completas (prueba), vector"
vector 35  BasicTopology.peer[17].bitTorrentApp.bitTorrentClient  DownloadComplete_Test:vector  ETV
attr source  BitTorrentClient_DownloadComplete_Test
attr title  "Descargas completas (prueba), vector"
vector 37  BasicTopology.peer[18].bitTorrentApp.bitTorrentClient  DownloadComplete_Test:vector  ETV
attr source  BitTorrentClient_DownloadComplete_Test
attr title  "Descargas completas (prueba), vector"
vector 39  BasicTopology.peer[19].bitTorrentApp.bitTorrentClient  DownloadComplete_Test:vector  ETV
attr source  BitTorrentClient_DownloadComplete_Test
attr title  "Descargas completas (prueba), vector"
vector 41  BasicTopology.peer[20].bitTorrentApp.bitTorrentClient  DownloadComplete_Test:vector  ETV
attr source  BitTorrentClient_DownloadComplete_Test
attr title  "Descargas completas (prueba), vector"
vector 43  BasicTopology.peer[21].bitTorrentApp.bitTorrentClient  DownloadComplete_Test:vector  ETV
attr source  BitTorrentClient_DownloadComplete_Test
attr title  "Descargas completas (prueba), vector"
vector 45  BasicTopology.peer[22].bitTorrentApp.bitTorrentClient  DownloadComplete_Test:vector  ETV
attr source  BitTorrentClient_DownloadComplete_Test
attr title  "Descargas completas (prueba), vector"
vector 47  BasicTopology.peer[23].bitTorrentApp.bitTorrentClient  DownloadComplete_Test:vector  ETV
attr source  BitTorrentClient_DownloadComplete_Test
attr title  "Descargas completas (prueba), vector"
vector 49  BasicTopology.peer[24].bitTorrentApp.bitTorrentClient  DownloadComplete_Test:vector  ETV
attr source  BitTorrentClient_DownloadComplete_Test
attr title  "Descargas completas (prueba), vector"
vector 833  BasicTopology.peer[0].bitTorrentApp.bitTorrentClient.contentManager_26  TotalBytesUploaded:vector  ETV
attr source  ContentManager_TotalBytesUploaded
attr title  "Total of Bytes Uploaded, vector"
attr unit  B
vector 992  BasicTopology.peer[20].bitTorrentApp.bitTorrentClient.contentManager_26  TotalBytesDownloaded:vector  ETV
attr source  ContentManager_TotalBytesDownloaded
attr title  "Total of Bytes Downloaded, vector"
attr unit  B
vector 991  BasicTopology.peer[20].bitTorrentApp.bitTorrentClient.contentManager_26  PiecesDownloaded:vector  ETV
attr source  ContentManager_PieceDownloaded
attr title  "Pieces Downloaded, vector"
vector 993  BasicTopology.peer[20].bitTorrentApp.bitTorrentClient.contentManager_26  TotalBytesUploaded:vector  ETV
attr source  ContentManager_TotalBytesUploaded
attr title  "Total of Bytes Uploaded, vector"
attr unit  B
vector 928  BasicTopology.peer[12].bitTorrentApp.bitTorrentClient.contentManager_26  TotalBytesDownloaded:vector  ETV
attr source  ContentManager_TotalBytesDownloaded
attr title  "Total of Bytes Downloaded, vector"
attr unit  B
vector 840  BasicTopology.peer[1].bitTorrentApp.bitTorrentClient.contentManager_26  TotalBytesDownloaded:vector  ETV
attr source  ContentManager_TotalBytesDownloaded
attr title  "Total of Bytes Downloaded, vector"
attr unit  B
vector 920  BasicTopology.peer[11].bitTorrentApp.bitTorrentClient.contentManager_26  TotalBytesDownloaded:vector  ETV
attr source  ContentManager_TotalBytesDownloaded
attr title  "Total of Bytes Downloaded, vector"
attr unit  B
vector 936  BasicTopology.peer[13].bitTorrentApp.bitTorrentClient.contentManager_26  TotalBytesDownloaded:vector  ETV
attr source  ContentManager_TotalBytesDownloaded
attr title  "Total of Bytes Downloaded, vector"
attr unit  B
vector 839  BasicTopology.peer[1].bitTorrentApp.bitTorrentClient.contentManager_26  PiecesDownloaded:vector  ETV
attr source  ContentManager_PieceDownloaded
attr title  "Pieces Downloaded, vector"
vector 841  BasicTopology.peer[1].bitTorrentApp.bitTorrentClient.contentManager_26  TotalBytesUploaded:vector  ETV
attr source  ContentManager_TotalBytesUploaded
attr title  "Total of Bytes Uploaded, vector"
attr unit  B
vector 904  BasicTopology.peer[9].bitTorrentApp.bitTorrentClient.contentManager_26  TotalBytesDownloaded:vector  ETV
attr source  ContentManager_TotalBytesDownloaded
attr title  "Total of Bytes Downloaded, vector"
attr unit  B
vector 848  BasicTopology.peer[2].bitTorrentApp.bitTorrentClient.contentManager_26  TotalBytesDownloaded:vector  ETV
attr source  ContentManager_TotalBytesDownloaded
attr title  "Total of Bytes Downloaded, vector"
attr unit  B
vector 856  BasicTopology.peer[3].bitTorrentApp.bitTorrentClient.contentManager_26  TotalBytesDownloaded:vector  ETV
attr source  ContentManager_TotalBytesDownloaded
attr title  "Total of Bytes Downloaded, vector"
attr unit  B
vector 912  BasicTopology.peer[10].bitTorrentApp.bitTorrentClient.contentManager_26  TotalBytesDownloaded:vector  ETV
attr source  ContentManager_TotalBytesDownloaded
attr title  "Total of Bytes Downloaded, vector"
attr unit  B
vector 935  BasicTopology.peer[13].bitTorrentApp.bitTorrentClient.contentManager_26  PiecesDownloaded:vector  ETV
attr source  ContentManager_PieceDownloaded
attr title  "Pieces Downloaded, vector"
vector 937  BasicTopology.peer[13].bitTorrentApp.bitTorrentClient.contentManager_26  TotalBytesUploaded:vector  ETV
attr source  ContentManager_TotalBytesUploaded
attr title  "Total of Bytes Uploaded, vector"
attr unit  B
vector 968  BasicTopology.peer[17].bitTorrentApp.bitTorrentClient.contentManager_26  TotalBytesDownloaded:vector  ETV
attr source  ContentManager_TotalBytesDownloaded
attr title  "Total of Bytes Downloaded, vector"
attr unit  B
vector 880  BasicTopology.peer[6].bitTorrentApp.bitTorrentClient.contentManager_26  TotalBytesDownloaded:vector  ETV
attr source  ContentManager_TotalBytesDownloaded
attr title  "Total of Bytes Downloaded, vector"
attr unit  B
vector 888  BasicTopology.peer[7].bitTorrentApp.bitTorrentClient.contentManager_26  TotalBytesDownloaded:vector  ETV
attr source  ContentManager_TotalBytesDownloaded
attr title  "Total of Bytes Downloaded, vector"
attr unit  B
vector 919  BasicTopology.peer[11].bitTorrentApp.bitTorrentClient.contentManager_26  PiecesDownloaded:vector  ETV
attr source  ContentManager_PieceDownloaded
attr title  "Pieces Downloaded, vector"
vector 911  BasicTopology.peer[10].bitTorrentApp.bitTorrentClient.contentManager_26  PiecesDownloaded:vector  ETV
attr source  ContentManager_PieceDownloaded
attr title  "Pieces Downloaded, vector"
vector 913  BasicTopology.peer[10].bitTorrentApp.bitTorrentClient.contentManager_26  TotalBytesUploaded:vector  ETV
attr source  ContentManager_TotalBytesUploaded
attr title  "Total of Bytes Uploaded, vector"
attr unit  B
vector 855  BasicTopology.peer[3].bitTorrentApp.bitTorrentClient.contentManager_26  PiecesDownloaded:vector  ETV
attr source  ContentManager_PieceDownloaded
attr title  "Pieces Downloaded, vector"
vector 857  BasicTopology.peer[3].bitTorrentApp.bitTorrentClient.contentManager_26  TotalBytesUploaded:vector  ETV
attr source  ContentManager_TotalBytesUploaded
attr title  "Total of Bytes Uploaded, vector"
attr unit  B
vector 944  BasicTopology.peer[14].bitTorrentApp.bitTorrentClient.contentManager_26  TotalBytesDownloaded:vector  ETV
attr source  ContentManager_TotalBytesDownloaded
attr title  "Total of Bytes Downloaded, vector"
attr unit  B
vector 1016  BasicTopology.peer[23].bitTorrentApp.bitTorrentClient.contentManager_26  TotalBytesDownloaded:vector  ETV
attr source  ContentManager_TotalBytesDownloaded
attr title  "Total of Bytes Downloaded, vector"
attr unit  B
vector 967  BasicTopology.peer[17].bitTorrentApp.bitTorrentClient.contentManager_26  PiecesDownloaded:vector  ETV
attr source  ContentManager_PieceDownloaded
attr title  "Pieces Downloaded, vector"
vector 969  BasicTopology.peer[17].bitTorrentApp.bitTorrentClient.contentManager_26  TotalBytesUploaded:vector  ETV
attr source  ContentManager_TotalBytesUploaded
attr title  "Total of Bytes Uploaded, vector"
attr unit  B
vector 1008  BasicTopology.peer[22].bitTorrentApp.bitTorrentClient.contentManager_26  TotalBytesDownloaded:vector  ETV
attr source  ContentManager_TotalBytesDownloaded
attr title  "Total of Bytes Downloaded, vector"
attr unit  B
vector 1000  BasicTopology.peer[21].bitTorrentApp.bitTorrentClient.contentManager_26  TotalBytesDownloaded:vector  ETV
attr source  ContentManager_TotalBytesDownloaded
attr title  "Total of Bytes Downloaded, vector"
attr unit  B
vector 921  BasicTopology.peer[11].bitTorrentApp.bitTorrentClient.contentManager_26  TotalBytesUploaded:vector  ETV
attr source  ContentManager_TotalBytesUploaded
attr title  "Total of Bytes Uploaded, vector"
attr unit  B
vector 984  BasicTopology.peer[19].bitTorrentApp.bitTorrentClient.contentManager_26  TotalBytesDownloaded:vector  ETV
attr source  ContentManager_TotalBytesDownloaded
attr title  "Total of Bytes Downloaded, vector"
attr unit  B
vector 943  BasicTopology.peer[14].bitTorrentApp.bitTorrentClient.contentManager_26  PiecesDownloaded:vector  ETV
attr source  ContentManager_PieceDownloaded
attr title  "Pieces Downloaded, vector"
vector 887  BasicTopology.peer[7].bitTorrentApp.bitTorrentClient.contentManager_26  PiecesDownloaded:vector  ETV
attr source  ContentManager_PieceDownloaded
attr title  "Pieces Downloaded, vector"
vector 889  BasicTopology.peer[7].bitTorrentApp.bitTorrentClient.contentManager_26  TotalBytesUploaded:vector  ETV
attr source  ContentManager_TotalBytesUploaded
attr title  "Total of Bytes Uploaded, vector"
attr unit  B
vector 952  BasicTopology.peer[15].bitTorrentApp.bitTorrentClient.contentManager_26  TotalBytesDownloaded:vector  ETV
attr source  ContentManager_TotalBytesDownloaded
attr title  "Total of Bytes Downloaded, vector"
attr unit  B
vector 960  BasicTopology.peer[16].bitTorrentApp.bitTorrentClient.contentManager_26  TotalBytesDownloaded:vector  ETV
attr source  ContentManager_TotalBytesDownloaded
attr title  "Total of Bytes Downloaded, vector"
attr unit  B
vector 1024  BasicTopology.peer[24].bitTorrentApp.bitTorrentClient.contentManager_26  TotalBytesDownloaded:vector  ETV
attr source  ContentManager_TotalBytesDownloaded
attr title  "Total of Bytes Downloaded, vector"
attr unit  B
vector 872  BasicTopology.peer[5].bitTorrentApp.bitTorrentClient.contentManager_26  TotalBytesDownloaded:vector  ETV
attr source  ContentManager_TotalBytesDownloaded
attr title  "Total of Bytes Downloaded, vector"
attr unit  B
vector 999  BasicTopology.peer[21].bitTorrentApp.bitTorrentClient.contentManager_26  PiecesDownloaded:vector  ETV
attr source  ContentManager_PieceDownloaded
attr title  "Pieces Downloaded, vector"
vector 1001  BasicTopology.peer[21].bitTorrentApp.bitTorrentClient.contentManager_26  TotalBytesUploaded:vector  ETV
attr source  ContentManager_TotalBytesUploaded
attr title  "Total of Bytes Uploaded, vector"
attr unit  B
vector 959  BasicTopology.peer[16].bitTorrentApp.bitTorrentClient.contentManager_26  PiecesDownloaded:vector  ETV
attr source  ContentManager_PieceDownloaded
attr title  "Pieces Downloaded, vector"
vector 896  BasicTopology.peer[8].bitTorrentApp.bitTorrentClient.contentManager_26  TotalBytesDownloaded:vector  ETV
attr source  ContentManager_TotalBytesDownloaded
attr title  "Total of Bytes Downloaded, vector"
attr unit  B
vector 879  BasicTopology.peer[6].bitTorrentApp.bitTorrentClient.contentManager_26  PiecesDownloaded:vector  ETV
attr source  ContentManager_PieceDownloaded
attr title  "Pieces Downloaded, vector"
vector 847  BasicTopology.peer[2].bitTorrentApp.bitTorrentClient.contentManager_26  PiecesDownloaded:vector  ETV
attr source  ContentManager_PieceDownloaded
attr title  "Pieces Downloaded, vector"
vector 849  BasicTopology.peer[2].bitTorrentApp.bitTorrentClient.contentManager_26  TotalBytesUploaded:vector  ETV
attr source  ContentManager_TotalBytesUploaded
attr title  "Total of Bytes Uploaded, vector"
attr unit  B
vector 1023  BasicTopology.peer[24].bitTorrentApp.bitTorrentClient.contentManager_26  PiecesDownloaded:vector  ETV
attr source  ContentManager_PieceDownloaded
attr title  "Pieces Downloaded, vector"
vector 1025  BasicTopology.peer[24].bitTorrentApp.bitTorrentClient.contentManager_26  TotalBytesUploaded:vector  ETV
attr source  ContentManager_TotalBytesUploaded
attr title  "Total of Bytes Uploaded, vector"
attr unit  B
vector 871  BasicTopology.peer[5].bitTorrentApp.bitTorrentClient.contentManager_26  PiecesDownloaded:vector  ETV
attr source  ContentManager_PieceDownloaded
attr title  "Pieces Downloaded, vector"
vector 951  BasicTopology.peer[15].bitTorrentApp.bitTorrentClient.contentManager_26  PiecesDownloaded:vector  ETV
attr source  ContentManager_PieceDownloaded
attr title  "Pieces Downloaded, vector"
vector 1015  BasicTopology.peer[23].bitTorrentApp.bitTorrentClient.contentManager_26  PiecesDownloaded:vector  ETV
attr source  ContentManager_PieceDownloaded
attr title  "Pieces Downloaded, vector"
vector 903  BasicTopology.peer[9].bitTorrentApp.bitTorrentClient.contentManager_26  PiecesDownloaded:vector  ETV
attr source  ContentManager_PieceDownloaded
attr title  "Pieces Downloaded, vector"
vector 1007  BasicTopology.peer[22].bitTorrentApp.bitTorrentClient.contentManager_26  PiecesDownloaded:vector  ETV
attr source  ContentManager_PieceDownloaded
attr title  "Pieces Downloaded, vector"
vector 895  BasicTopology.peer[8].bitTorrentApp.bitTorrentClient.contentManager_26  PiecesDownloaded:vector  ETV
attr source  ContentManager_PieceDownloaded
attr title  "Pieces Downloaded, vector"
vector 1009  BasicTopology.peer[22].bitTorrentApp.bitTorrentClient.contentManager_26  TotalBytesUploaded:vector  ETV
attr source  ContentManager_TotalBytesUploaded
attr title  "Total of Bytes Uploaded, vector"
attr unit  B
vector 1017  BasicTopology.peer[23].bitTorrentApp.bitTorrentClient.contentManager_26  TotalBytesUploaded:vector  ETV
attr source  ContentManager_TotalBytesUploaded
attr title  "Total of Bytes Uploaded, vector"
attr unit  B
vector 976  BasicTopology.peer[18].bitTorrentApp.bitTorrentClient.contentManager_26  TotalBytesDownloaded:vector  ETV
attr source  ContentManager_TotalBytesDownloaded
attr title  "Total of Bytes Downloaded, vector"
attr unit  B
vector 927  BasicTopology.peer[12].bitTorrentApp.bitTorrentClient.contentManager_26  PiecesDownloaded:vector  ETV
attr source  ContentManager_PieceDownloaded
attr title  "Pieces Downloaded, vector"
vector 929  BasicTopology.peer[12].bitTorrentApp.bitTorrentClient.contentManager_26  TotalBytesUploaded:vector  ETV
attr source  ContentManager_TotalBytesUploaded
attr title  "Total of Bytes Uploaded, vector"
attr unit  B
vector 864  BasicTopology.peer[4].bitTorrentApp.bitTorrentClient.contentManager_26  TotalBytesDownloaded:vector  ETV
attr source  ContentManager_TotalBytesDownloaded
attr title  "Total of Bytes Downloaded, vector"
attr unit  B
vector 897  BasicTopology.peer[8].bitTorrentApp.bitTorrentClient.contentManager_26  TotalBytesUploaded:vector  ETV
attr source  ContentManager_TotalBytesUploaded
attr title  "Total of Bytes Uploaded, vector"
attr unit  B
vector 983  BasicTopology.peer[19].bitTorrentApp.bitTorrentClient.contentManager_26  PiecesDownloaded:vector  ETV
attr source  ContentManager_PieceDownloaded
attr title  "Pieces Downloaded, vector"
vector 985  BasicTopology.peer[19].bitTorrentApp.bitTorrentClient.contentManager_26  TotalBytesUploaded:vector  ETV
attr source  ContentManager_TotalBytesUploaded
attr title  "Total of Bytes Uploaded, vector"
attr unit  B
vector 905  BasicTopology.peer[9].bitTorrentApp.bitTorrentClient.contentManager_26  TotalBytesUploaded:vector  ETV
attr source  ContentManager_TotalBytesUploaded
attr title  "Total of Bytes Uploaded, vector"
attr unit  B
vector 881  BasicTopology.peer[6].bitTorrentApp.bitTorrentClient.contentManager_26  TotalBytesUploaded:vector  ETV
attr source  ContentManager_TotalBytesUploaded
attr title  "Total of Bytes Uploaded, vector"
attr unit  B
vector 863  BasicTopology.peer[4].bitTorrentApp.bitTorrentClient.contentManager_26  PiecesDownloaded:vector  ETV
attr source  ContentManager_PieceDownloaded
attr title  "Pieces Downloaded, vector"
vector 865  BasicTopology.peer[4].bitTorrentApp.bitTorrentClient.contentManager_26  TotalBytesUploaded:vector  ETV
attr source  ContentManager_TotalBytesUploaded
attr title  "Total of Bytes Uploaded, vector"
attr unit  B
vector 953  BasicTopology.peer[15].bitTorrentApp.bitTorrentClient.contentManager_26  TotalBytesUploaded:vector  ETV
attr source  ContentManager_TotalBytesUploaded
attr title  "Total of Bytes Uploaded, vector"
attr unit  B
vector 975  BasicTopology.peer[18].bitTorrentApp.bitTorrentClient.contentManager_26  PiecesDownloaded:vector  ETV
attr source  ContentManager_PieceDownloaded
attr title  "Pieces Downloaded, vector"
vector 873  BasicTopology.peer[5].bitTorrentApp.bitTorrentClient.contentManager_26  TotalBytesUploaded:vector  ETV
attr source  ContentManager_TotalBytesUploaded
attr title  "Total of Bytes Uploaded, vector"
attr unit  B
vector 945  BasicTopology.peer[14].bitTorrentApp.bitTorrentClient.contentManager_26  TotalBytesUploaded:vector  ETV
attr source  ContentManager_TotalBytesUploaded
attr title  "Total of Bytes Uploaded, vector"
attr unit  B
3	85	36001	36001
3	20999565	36038.825277820228	36038.82527782
5	86	36001	36001
5	52405013	36089.84048390212	36089.840483902
7	87	36001	36001
7	68268553	36122.093564818165	36122.093564818
9	88	36001	36001
9	69926314	36125.589352824331	36125.589352824
11	89	36001	36001
11	77330094	36143.018315623646	36143.018315624
13	90	36001	36001
13	78752558	36146.455406275172	36146.455406275
15	91	36001	36001
15	73497399	36133.549820656266	36133.549820656
17	92	36001	36001
17	66900607	36118.976051322049	36118.976051322
19	93	36001	36001
19	78287006	36145.298794296474	36145.298794296
21	94	36001	36001
21	32422789	36056.315937213146	36056.315937213
23	95	36001	36001
23	82101458	36302.773670121291	36302.773670121
25	96	36001	36001
25	72019713	36130.18005164194	36130.180051642
27	97	36001	36001
27	75196311	36138.097951786102	36138.097951786
29	98	36001	36001
29	80321810	36152.880272064549	36152.880272065
31	99	36001	36001
31	57683238	36100.300381812898	36100.300381813
33	100	36001	36001
33	74931392	36137.195550140862	36137.195550141
35	101	36001	36001
35	79157869	36147.870303118841	36147.870303119
37	102	36001	36001
37	78498350	36145.681442018878	36145.681442019
39	103	36001	36001
39	80235214	36151.735110879378	36151.735110879
41	104	36001	36001
41	37531584	36064.074982671363	36064.074982671
43	105	36001	36001
43	39044245	36066.795939034024	36066.795939034
45	106	36001	36001
45	71194555	36128.432069941339	36128.432069941
47	107	36001	36001
47	51133394	36087.511463236339	36087.511463236
49	108	36001	36001
49	75169099	36138.041692292571	36138.041692293
833	135217	36001.115279720888	32768
833	140097	36001.120652527365	65536
833	149279	36001.127101880105	98304
833	154078	36001.130781147772	131072
833	155855	36001.132182224131	163840
833	161036	36001.136323918668	196608
833	162803	36001.13770421771	229376
833	172253	36001.146179620391	262144
833	176768	36001.15054350054	294912
833	178943	36001.15261233661	327680
833	180085	36001.154132589103	360448
833	191560	36001.167849908518	393216
833	192334	36001.169191058352	425984
833	193680	36001.170955720145	458752
833	194013	36001.171661144985	491520
833	194300	36001.172414789443	524288
833	194593	36001.172916981974	557056
833	194949	36001.173723619886	589824
833	195006	36001.174228120867	622592
833	198562	36001.187367293263	655360
833	491754	36002.608022750592	688128
833	523893	36002.652476594397	720896
833	587178	36003.710422468468	753664
833	602311	36003.779286772072	786432
833	656962	36004.038124203742	819200
833	658535	36004.039431290072	851968
833	658761	36004.039683244647	884736
833	659107	36004.040003839911	917504
833	659330	36004.040234055955	950272
833	660646	36004.041387402965	983040
833	662021	36004.042856569825	1015808
833	679371	36004.058919944187	1048576
833	686773	36004.066060682781	1081344
833	687104	36004.066374096005	1114112
833	877042	36004.612715967375	1146880
833	878534	36004.615289553221	1179648
833	882404	36004.621790482577	1212416
833	885114	36004.625281839157	1245184
833	885275	36004.625786666002	1277952
833	885805	36004.627228698717	1310720
833	900944	36004.650682139796	1343488
833	901434	36004.651442713086	1376256
833	902116	36004.652662526141	1409024
833	902377	36004.653119173622	1441792
833	955383	36004.855844794012	1474560
833	966840	36004.900432251876	1507328
833	981139	36004.959832807964	1540096
833	1025700	36005.035593319303	1572864
833	1111384	36005.260720962954	1605632
833	1127486	36005.301749052316	1638400
833	1141710	36005.339807491435	1671168
833	1153571	36005.37777876327	1703936
833	1202668	36005.734302393297	1736704
833	1215662	36005.772386773992	1769472
833	1229575	36005.814086615824	1802240
833	1251309	36005.879544154868	1835008
833	1296461	36006.097516775279	1867776
833	1326460	36006.170954491218	1900544
833	1339815	36006.224796351832	1933312
833	1366700	36006.393710159237	1966080
833	1383255	36006.429600264545	1998848
833	1401601	36006.469971056231	2031616
833	1430089	36006.5233019095	2064384
833	1468597	36006.598553454459	2097152
833	1476545	36006.613244023835	2129920
833	1521326	36006.709688714238	2162688
833	1525793	36006.724522325101	2195456
833	1533152	36006.749441026604	2228224
833	1545521	36006.7890226835	2260992
833	1549363	36006.797799943176	2293760
833	1553114	36006.913389128285	2326528
833	1569939	36006.96526543321	2359296
833	1610846	36007.037954661394	2392064
833	1713737	36007.235625490104	2424832
833	1762441	36007.317206995946	2457600
833	1944571	36007.835171341686	2490368
833	1969905	36007.881977038193	2523136
833	1985368	36007.912964805289	2555904
833	2005778	36007.95120969837	2588672
833	2085583	36008.412181836566	2621440
833	2099839	36008.43698614143	2654208
833	2113404	36008.481155511834	2686976
833	2135744	36008.539654527086	2719744
833	2287019	36009.011003508947	2752512
833	2553550	36009.635705568748	2785280
833	2602299	36009.711294636173	2818048
833	2634753	36009.760516381543	2850816
833	3157878	36010.815392329571	2883584
833	3195421	36010.874188580328	2916352
833	3235679	36010.938467855252	2949120
833	3281777	36011.017942694374	2981888
833	3320354	36011.080160862999	3014656
833	3398945	36011.194626673199	3047424
833	3557994	36011.57786078428	3080192
833	3760304	36012.086296477824	3112960
833	3766418	36012.096504555488	3145728
833	3787414	36012.128775614218	3178496
833	3820955	36012.188270307686	3211264
833	3891854	36012.301754180554	3244032
833	3922393	36012.357382394155	3276800
833	4303620	36013.290153504945	3309568
833	4341331	36013.343935610829	3342336
833	4380257	36013.412099968609	3375104
833	4416744	36013.474821353419	3407872
833	4762122	36014.167754468036	3440640
833	4762391	36014.168105428714	3473408
833	4809821	36014.23985925852	3506176
833	4847469	36014.299742012622	3538944
833	5019443	36014.584688499737	3571712
833	5083197	36014.683150044346	3604480
833	5777866	36015.848679969657	3637248
833	6549253	36017.045741378206	3670016
833	6752670	36017.336790538146	3702784
833	6791263	36017.391745246904	3735552
833	6833098	36017.472461144415	3768320
833	6910143	36017.588456691193	3801088
833	7144312	36018.129662664236	3833856
833	7349846	36018.435727394557	3866624
833	7382294	36018.476077474315	3899392
833	7411482	36018.514738294144	3932160
833	7427698	36018.534658251773	3964928
833	7448901	36018.563101071169	3997696
833	7480625	36018.60183768131	4030464
833	7546110	36018.705724143848	4063232
833	7820894	36019.18941221783	4096000
833	7862973	36019.257687349072	4128768
833	7918632	36019.326098232672	4161536
833	7974741	36019.391522942662	4194304
833	8171716	36019.641675549624	4227072
833	8194467	36019.677660973787	4259840
833	8309557	36019.882388159282	4292608
833	8372462	36019.968332403756	4325376
833	8646251	36020.44717145447	4358144
833	8692189	36020.519910196162	4390912
833	8794998	36020.659185826924	4423680
833	8829192	36020.705284222746	4456448
833	8866222	36020.75145516246	4489216
833	8891109	36020.78397695774	4521984
833	8908449	36020.804848463498	4554752
833	8959740	36020.871334808422	4587520
833	9095943	36021.101679211217	4620288
833	9607965	36021.895300090833	4653056
833	10158617	36022.728524243316	4685824
833	10171149	36022.754533842503	4718592
833	10171469	36022.755335621731	4751360
833	10178279	36022.768328914404	4784128
833	10277289	36022.912862587276	4816896
833	10299405	36022.942060320492	4849664
833	10319023	36022.969311657355	4882432
833	10449572	36023.234334563733	4915200
833	11026597	36024.032743679524	4947968
833	11194167	36024.308859479422	4980736
833	11587036	36025.081953980451	5013504
833	11653438	36025.163920625772	5046272
833	11717319	36025.26186144761	5079040
833	11718791	36025.264242517322	5111808
833	11779511	36025.406018328193	5144576
833	11838746	36025.50122616555	5177344
833	12360105	36026.294355331926	5210112
833	12387391	36026.340154346182	5242880
833	12549439	36026.63577924373	5275648
833	12977701	36027.337492776968	5308416
833	13010000	36027.383604672656	5341184
833	13139212	36027.563560274502	5373952
833	13322791	36027.815862259896	5406720
833	14030608	36028.875618930463	5439488
833	14450101	36029.452249310362	5472256
833	14485895	36029.498888243339	5505024
833	14504719	36029.524991053837	5537792
833	14573990	36029.635947030853	5570560
833	14813725	36029.999578869802	5603328
833	14871959	36030.088674638483	5636096
833	14939017	36030.182316453559	5668864
833	14967009	36030.223023775126	5701632
833	15051800	36030.336482214942	5734400
833	15209113	36030.597453399236	5767168
833	15237262	36030.638247033474	5799936
833	15260744	36030.676712540445	5832704
833	15543293	36031.083068368444	5865472
833	15544832	36031.08500244525	5898240
833	15552617	36031.095971149947	5931008
833	15552619	36031.095973820105	5963776
833	15569124	36031.119111230317	5996544
833	15569220	36031.119435051937	6029312
833	15569503	36031.120215500839	6062080
833	15578750	36031.132530136164	6094848
833	15603819	36031.159800292743	6127616
833	15616813	36031.176769662479	6160384
833	15757460	36031.406724173832	6193152
833	16719465	36032.824313181727	6225920
833	16762809	36032.883650350064	6258688
833	16803024	36032.942889116668	6291456
833	16842690	36032.997761521813	6324224
833	16891373	36033.060309456468	6356992
833	16938879	36033.123887707313	6389760
833	16980533	36033.179074704263	6422528
833	17011694	36033.216850291162	6455296
833	17783829	36034.270112243242	6488064
833	17811530	36034.309493166336	6520832
833	18098165	36034.740094444947	6553600
833	18147146	36034.8014793346	6586368
833	18208545	36034.881581078427	6619136