file 1365959 1520116772                                         
version 2
run Test-0-20180302-17:18:03-5759
attr configname Test
attr datetime 20180302-17:18:03
attr experiment "\"Simulation Test\""
attr inifile BasicConfig.ini
attr iterationvars ""
attr iterationvars2 $repetition=0
attr measurement "\"Peers: $peers, Rate: $rate\""
attr network BasicTopology
attr processid 5759
attr repetition 0
attr replication #0
attr resultdir results
attr runnumber 0
attr seedset 0
vector 11  BasicTopology.peer[5].bitTorrentApp.bitTorrentClient  DownloadComplete_Test:vector  ETV
attr source BitTorrentClient_DownloadComplete_Test
attr title "Descargas completas (prueba), vector"
11	39719 76 129718459 434959493 259201 260495.167832542518 2 259201 260495.16783254 519696.16783254 135042890865.1
vector 13  BasicTopology.peer[6].bitTorrentApp.bitTorrentClient  DownloadComplete_Test:vector  ETV
attr source BitTorrentClient_DownloadComplete_Test
attr title "Descargas completas (prueba), vector"
13	39795 76 129718460 270511185 259201 259341.871567578145 2 259201 259341.87156758 518542.87156758 134443364749.18
vector 15  BasicTopology.peer[7].bitTorrentApp.bitTorrentClient  DownloadComplete_Test:vector  ETV
attr source BitTorrentClient_DownloadComplete_Test
attr title "Descargas completas (prueba), vector"
15	39871 75 129718461 360587885 259201 259485.40373503787 2 259201 259485.40373504 518686.40373504 134517833152.54
vector 17  BasicTopology.peer[8].bitTorrentApp.bitTorrentClient  DownloadComplete_Test:vector  ETV
attr source BitTorrentClient_DownloadComplete_Test
attr title "Descargas completas (prueba), vector"
17	39946 76 129718462 355603735 259201 259472.627902266315 2 259201 259472.62790227 518673.62790227 134511203031.51
vector 19  BasicTopology.peer[9].bitTorrentApp.bitTorrentClient  DownloadComplete_Test:vector  ETV
attr source BitTorrentClient_DownloadComplete_Test
attr title "Descargas completas (prueba), vector"
19	40022 76 129718463 360046435 259201 259482.919949645443 2 259201 259482.91994965 518683.91994965 134516544146.6
vector 21  BasicTopology.peer[10].bitTorrentApp.bitTorrentClient  DownloadComplete_Test:vector  ETV
attr source BitTorrentClient_DownloadComplete_Test
attr title "Descargas completas (prueba), vector"
21	40098 76 129718464 406528541 259201 260221.801801082657 2 259201 260221.80180108 519422.80180108 134900544533.6
vector 23  BasicTopology.peer[11].bitTorrentApp.bitTorrentClient  DownloadComplete_Test:vector  ETV
attr source BitTorrentClient_DownloadComplete_Test
attr title "Descargas completas (prueba), vector"
23	40174 76 129718465 355177411 259201 259471.665406514215 2 259201 259471.66540651 518672.66540651 134510703549.83
vector 25  BasicTopology.peer[12].bitTorrentApp.bitTorrentClient  DownloadComplete_Test:vector  ETV
attr source BitTorrentClient_DownloadComplete_Test
attr title "Descargas completas (prueba), vector"
25	40250 76 129718466 228987370 259201 259298.002054490057 2 259201 259298.00205449 518499.00205449 134420612270.45
vector 27  BasicTopology.peer[13].bitTorrentApp.bitTorrentClient  DownloadComplete_Test:vector  ETV
attr source BitTorrentClient_DownloadComplete_Test
attr title "Descargas completas (prueba), vector"
27	40326 76 129718467 343822464 259201 259450.725176057915 2 259201 259450.72517606 518651.72517606 134499837195.38
vector 29  BasicTopology.peer[14].bitTorrentApp.bitTorrentClient  DownloadComplete_Test:vector  ETV
attr source BitTorrentClient_DownloadComplete_Test
attr title "Descargas completas (prueba), vector"
29	40402 76 129718468 388997446 259201 260108.425494776421 2 259201 260108.42549478 519309.42549478 134841551414.37
vector 31  BasicTopology.peer[15].bitTorrentApp.bitTorrentClient  DownloadComplete_Test:vector  ETV
attr source BitTorrentClient_DownloadComplete_Test
attr title "Descargas completas (prueba), vector"
31	40478 76 129718469 345028462 259201 259452.654929306447 2 259201 259452.65492931 518653.65492931 134500838550.87
vector 33  BasicTopology.peer[16].bitTorrentApp.bitTorrentClient  DownloadComplete_Test:vector  ETV
attr source BitTorrentClient_DownloadComplete_Test
attr title "Descargas completas (prueba), vector"
33	40554 76 129718470 351092347 259201 259463.242485041599 2 259201 259463.24248504 518664.24248504 134506332601.85
vector 35  BasicTopology.peer[17].bitTorrentApp.bitTorrentClient  DownloadComplete_Test:vector  ETV
attr source BitTorrentClient_DownloadComplete_Test
attr title "Descargas completas (prueba), vector"
35	40630 76 129718471 354229784 259201 259469.648038569574 2 259201 259469.64803857 518670.64803857 134509656654.26
vector 37  BasicTopology.peer[18].bitTorrentApp.bitTorrentClient  DownloadComplete_Test:vector  ETV
attr source BitTorrentClient_DownloadComplete_Test
attr title "Descargas completas (prueba), vector"
37	40706 76 129718472 340074592 259201 259444.896645991618 2 259201 259444.89664599 518645.89664599 134496812796.65
vector 39  BasicTopology.peer[19].bitTorrentApp.bitTorrentClient  DownloadComplete_Test:vector  ETV
attr source BitTorrentClient_DownloadComplete_Test
attr title "Descargas completas (prueba), vector"
39	40782 74 129718473 306789859 259201 259392.374741998589 2 259201 259392.374742 518593.374742 134469562475.29
vector 41  BasicTopology.peer[20].bitTorrentApp.bitTorrentClient  DownloadComplete_Test:vector  ETV
attr source BitTorrentClient_DownloadComplete_Test
attr title "Descargas completas (prueba), vector"
41	40856 76 129718474 424567992 259201 260452.713375450792 2 259201 260452.71337545 519653.71337545 135020774305.63
vector 43  BasicTopology.peer[21].bitTorrentApp.bitTorrentClient  DownloadComplete_Test:vector  ETV
attr source BitTorrentClient_DownloadComplete_Test
attr title "Descargas completas (prueba), vector"
43	40932 76 129718475 371311759 259201 259810.972836475302 2 259201 259810.97283648 519011.97283648 134686900007.24
vector 45  BasicTopology.peer[22].bitTorrentApp.bitTorrentClient  DownloadComplete_Test:vector  ETV
attr source BitTorrentClient_DownloadComplete_Test
attr title "Descargas completas (prueba), vector"
45	41008 76 129718476 440538006 259201 261328.968763473823 2 259201 261328.96876347 520529.96876347 135477988315.98
vector 47  BasicTopology.peer[23].bitTorrentApp.bitTorrentClient  DownloadComplete_Test:vector  ETV
attr source BitTorrentClient_DownloadComplete_Test
attr title "Descargas completas (prueba), vector"
47	41084 76 129718477 378527768 259201 259825.211854371259 2 259201 259825.21185437 519026.21185437 134694299116.17
vector 49  BasicTopology.peer[24].bitTorrentApp.bitTorrentClient  DownloadComplete_Test:vector  ETV
attr source BitTorrentClient_DownloadComplete_Test
attr title "Descargas completas (prueba), vector"
49	41160 76 129718478 259181601 259201 259329.151513979947 2 259201 259329.15151398 518530.15151398 134436767225.96
vector 51  BasicTopology.peer[25].bitTorrentApp.bitTorrentClient  DownloadComplete_Test:vector  ETV
attr source BitTorrentClient_DownloadComplete_Test
attr title "Descargas completas (prueba), vector"
51	41236 76 129718479 416650287 259201 260428.893423992804 2 259201 260428.89342399 519629.89342399 135008366931.04
vector 53  BasicTopology.peer[26].bitTorrentApp.bitTorrentClient  DownloadComplete_Test:vector  ETV
attr source BitTorrentClient_DownloadComplete_Test
attr title "Descargas completas (prueba), vector"
53	41312 75 129718480 416298035 259201 260427.71631509039 2 259201 260427.71631509 519628.71631509 135007753826.09
vector 55  BasicTopology.peer[27].bitTorrentApp.bitTorrentClient  DownloadComplete_Test:vector  ETV
attr source BitTorrentClient_DownloadComplete_Test
attr title "Descargas completas (prueba), vector"
55	41387 76 129718481 377896023 259201 259823.852619390002 2 259201 259823.85261939 519024.85261939 134693592790.98
vector 57  BasicTopology.peer[28].bitTorrentApp.bitTorrentClient  DownloadComplete_Test:vector  ETV
attr source BitTorrentClient_DownloadComplete_Test
attr title "Descargas completas (prueba), vector"
57	41463 76 129718482 421695924 259201 260443.904534424189 2 259201 260443.90453442 519644.90453442 135016185810.13
vector 59  BasicTopology.peer[29].bitTorrentApp.bitTorrentClient  DownloadComplete_Test:vector  ETV
attr source BitTorrentClient_DownloadComplete_Test
attr title "Descargas completas (prueba), vector"
59	41539 76 129718483 368268597 259201 259805.934401770882 2 259201 259805.93440177 519006.93440177 134684281951.38
vector 61  BasicTopology.peer[30].bitTorrentApp.bitTorrentClient  DownloadComplete_Test:vector  ETV
attr source BitTorrentClient_DownloadComplete_Test
attr title "Descargas completas (prueba), vector"
61	41615 76 129718484 435995726 259201 260514.491951119759 2 259201 260514.49195112 519715.49195112 135052958917.55
vector 63  BasicTopology.peer[31].bitTorrentApp.bitTorrentClient  DownloadComplete_Test:vector  ETV
attr source BitTorrentClient_DownloadComplete_Test
attr title "Descargas completas (prueba), vector"
63	41691 75 129718485 397370667 259201 260138.142959802342 2 259201 260138.1429598 519339.1429598 134857011823.57
vector 65  BasicTopology.peer[32].bitTorrentApp.bitTorrentClient  DownloadComplete_Test:vector  ETV
attr source BitTorrentClient_DownloadComplete_Test
attr title "Descargas completas (prueba), vector"
65	41766 76 129718486 315790612 259201 259407.057828019221 2 259201 259407.05782802 518608.05782802 134477180051.99
vector 67  BasicTopology.peer[33].bitTorrentApp.bitTorrentClient  DownloadComplete_Test:vector  ETV
attr source BitTorrentClient_DownloadComplete_Test
attr title "Descargas completas (prueba), vector"
67	41842 76 129718487 353479422 259201 259468.150486315402 2 259201 259468.15048632 518669.15048632 134508879517.79
vector 69  BasicTopology.peer[34].bitTorrentApp.bitTorrentClient  DownloadComplete_Test:vector  ETV
attr source BitTorrentClient_DownloadComplete_Test
attr title "Descargas completas (prueba), vector"
69	41918 76 129718488 420036405 259201 260439.596384855442 2 259201 260439.59638486 519640.59638486 135013941766.11
vector 71  BasicTopology.peer[35].bitTorrentApp.bitTorrentClient  DownloadComplete_Test:vector  ETV
attr source BitTorrentClient_DownloadComplete_Test
attr title "Descargas completas (prueba), vector"
71	41994 76 129718489 415620596 259201 260425.191234224763 2 259201 260425.19123422 519626.19123422 135006438630.38
vector 73  BasicTopology.peer[36].bitTorrentApp.bitTorrentClient  DownloadComplete_Test:vector  ETV
attr source BitTorrentClient_DownloadComplete_Test
attr title "Descargas completas (prueba), vector"
73	42070 76 129718490 342122787 259201 259448.189990266905 2 259201 259448.18999027 518649.18999027 134498521690.23
vector 75  BasicTopology.peer[37].bitTorrentApp.bitTorrentClient  DownloadComplete_Test:vector  ETV
attr source BitTorrentClient_DownloadComplete_Test
attr title "Descargas completas (prueba), vector"
75	42146 75 129718491 358212745 259201 259478.17280391635 2 259201 259478.17280392 518679.17280392 134514080562.66
vector 77  BasicTopology.peer[38].bitTorrentApp.bitTorrentClient  DownloadComplete_Test:vector  ETV
attr source BitTorrentClient_DownloadComplete_Test
attr title "Descargas completas (prueba), vector"
77	42221 76 129718492 447913846 259201 262536.940070718366 2 259201 262536.94007072 521737.94007072 136110803302.7
vector 79  BasicTopology.peer[39].bitTorrentApp.bitTorrentClient  DownloadComplete_Test:vector  ETV
attr source BitTorrentClient_DownloadComplete_Test
attr title "Descargas completas (prueba), vector"
79	42297 76 129718493 384008775 259201 259857.696785305851 2 259201 259857.69678531 519058.69678531 134711180979.57
vector 81  BasicTopology.peer[40].bitTorrentApp.bitTorrentClient  DownloadComplete_Test:vector  ETV
attr source BitTorrentClient_DownloadComplete_Test
attr title "Descargas completas (prueba), vector"
81	42373 76 129718494 359808137 259201 259481.905772809213 2 259201 259481.90577281 518682.90577281 134516017824.49
vector 83  BasicTopology.peer[41].bitTorrentApp.bitTorrentClient  DownloadComplete_Test:vector  ETV
attr source BitTorrentClient_DownloadComplete_Test
attr title "Descargas completas (prueba), vector"
83	42449 76 129718495 373038293 259201 259813.870322960435 2 259201 259813.87032296 519014.87032296 134688405613.2
vector 85  BasicTopology.peer[42].bitTorrentApp.bitTorrentClient  DownloadComplete_Test:vector  ETV
attr source BitTorrentClient_DownloadComplete_Test
attr title "Descargas completas (prueba), vector"
85	42525 76 129718496 416981401 259201 260429.863804440584 2 259201 260429.86380444 519630.86380444 135008872362.2
vector 87  BasicTopology.peer[43].bitTorrentApp.bitTorrentClient  DownloadComplete_Test:vector  ETV
attr source BitTorrentClient_DownloadComplete_Test
attr title "Descargas completas (prueba), vector"
87	42601 76 129718497 379558734 259201 259828.080244632309 2 259201 259828.08024463 519029.08024463 134695789684.61
vector 89  BasicTopology.peer[44].bitTorrentApp.bitTorrentClient  DownloadComplete_Test:vector  ETV
attr source BitTorrentClient_DownloadComplete_Test
attr title "Descargas completas (prueba), vector"
89	42677 76 129718498 356602577 259201 259474.928426686191 2 259201 259474.92842669 518675.92842669 134512396883.04
vector 91  BasicTopology.peer[45].bitTorrentApp.bitTorrentClient  DownloadComplete_Test:vector  ETV
attr source BitTorrentClient_DownloadComplete_Test
attr title "Descargas completas (prueba), vector"
91	42753 76 129718499 373421654 259201 259814.609582857774 2 259201 259814.60958286 519015.60958286 134688789753.69
vector 93  BasicTopology.peer[46].bitTorrentApp.bitTorrentClient  DownloadComplete_Test:vector  ETV
attr source BitTorrentClient_DownloadComplete_Test
attr title "Descargas completas (prueba), vector"
93	42829 76 129718500 361537679 259201 259496.043291679034 2 259201 259496.04329168 518697.04329168 134523354885.04
vector 95  BasicTopology.peer[47].bitTorrentApp.bitTorrentClient  DownloadComplete_Test:vector  ETV
attr source BitTorrentClient_DownloadComplete_Test
attr title "Descargas completas (prueba), vector"
95	42905 76 129718501 380960154 259201 259832.842876638826 2 259201 259832.84287664 519033.84287664 134698264638.36
vector 97  BasicTopology.peer[48].bitTorrentApp.bitTorrentClient  DownloadComplete_Test:vector  ETV
attr source BitTorrentClient_DownloadComplete_Test
attr title "Descargas completas (prueba), vector"
97	42981 76 129718502 378521702 259201 259825.181269133659 2 259201 259825.18126913 519026.18126913 134694283222.54
vector 99  BasicTopology.peer[49].bitTorrentApp.bitTorrentClient  DownloadComplete_Test:vector  ETV
attr source BitTorrentClient_DownloadComplete_Test
attr title "Descargas completas (prueba), vector"
99	43057 76 129718503 338616405 259201 259442.456070269067 2 259201 259442.45607027 518643.45607027 134495546412.77
vector 1641  BasicTopology.peer[1].bitTorrentApp.bitTorrentClient.contentManager_54  TotalBytesUploaded:vector  ETV
attr source ContentManager_TotalBytesUploaded
attr title "Total of Bytes Uploaded, vector"
attr unit B
1641	57190 2453 129845858 157819993 259201.068810115498 259230.575247384356 58 32768 1900544 56066048 71649718173696
vector 1665  BasicTopology.peer[4].bitTorrentApp.bitTorrentClient.contentManager_54  TotalBytesUploaded:vector  ETV
attr source ContentManager_TotalBytesUploaded
attr title "Total of Bytes Uploaded, vector"
attr unit B
1665	116822 17085 129858979 377221006 259201.100877463287 259822.092555184656 397 32768 13008896 2588770304 2.247963871019e+16
vector 1649  BasicTopology.peer[2].bitTorrentApp.bitTorrentClient.contentManager_54  TotalBytesUploaded:vector  ETV
attr source ContentManager_TotalBytesUploaded
attr title "Total of Bytes Uploaded, vector"
attr unit B
1649	59643 33192 129902932 440043829 259201.171142186796 261325.109856870397 764 32768 25034752 9575792640 1.5992298915496e+17
vector 1657  BasicTopology.peer[3].bitTorrentApp.bitTorrentClient.contentManager_54  TotalBytesUploaded:vector  ETV
attr source ContentManager_TotalBytesUploaded
attr title "Total of Bytes Uploaded, vector"
attr unit B
1657	92835 23987 129926279 425231758 259201.256471219676 260455.676334711313 554 32768 18153472 5037588480 6.1021504845906e+16
vector 1976  BasicTopology.peer[43].bitTorrentApp.bitTorrentClient.contentManager_54  TotalBytesDownloaded:vector  ETV
attr source ContentManager_TotalBytesDownloaded
attr title "Total of Bytes Downloaded, vector"
attr unit B
1976	1151780 13705 130133788 379558734 259202.310566007573 259828.080244632309 320 32768 10485760 1682964480 1.178315687723e+16
vector 1784  BasicTopology.peer[19].bitTorrentApp.bitTorrentClient.contentManager_54  TotalBytesDownloaded:vector  ETV
attr source ContentManager_TotalBytesDownloaded
attr title "Total of Bytes Downloaded, vector"
attr unit B
1784	496015 13699 130181059 306789859 259202.41806243411 259392.374741998589 320 32768 10485760 1682964480 1.178315687723e+16
vector 1824  BasicTopology.peer[24].bitTorrentApp.bitTorrentClient.contentManager_54  TotalBytesDownloaded:vector  ETV
attr source ContentManager_TotalBytesDownloaded
attr title "Total of Bytes Downloaded, vector"
attr unit B
1824	634645 13717 130348219 259181601 259202.663114401554 259329.151513979947 320 32768 10485760 1682964480 1.178315687723e+16
vector 1888  BasicTopology.peer[32].bitTorrentApp.bitTorrentClient.contentManager_54  TotalBytesDownloaded:vector  ETV
attr source ContentManager_TotalBytesDownloaded
attr title "Total of Bytes Downloaded, vector"
attr unit B
1888	850035 13887 130392690 316079803 259202.714485209718 259407.554007963687 324 32768 10616832 1725235200 1.2229865688269e+16
vector 1832  BasicTopology.peer[25].bitTorrentApp.bitTorrentClient.contentManager_54  TotalBytesDownloaded:vector  ETV
attr source ContentManager_TotalBytesDownloaded
attr title "Total of Bytes Downloaded, vector"
attr unit B
1832	676226 13709 130403106 416650287 259202.723234375075 260428.893423992804 320 32768 10485760 1682964480 1.178315687723e+16
vector 1728  BasicTopology.peer[12].bitTorrentApp.bitTorrentClient.contentManager_54  TotalBytesDownloaded:vector  ETV
attr source ContentManager_TotalBytesDownloaded
attr title "Total of Bytes Downloaded, vector"
attr unit B
1728	285530 13703 130435389 228987370 259202.750037859511 259298.002054490057 320 32768 10485760 1682964480 1.178315687723e+16
vector 1831  BasicTopology.peer[25].bitTorrentApp.bitTorrentClient.contentManager_54  PiecesDownloaded:vector  ETV
attr source ContentManager_PieceDownloaded
attr title "Pieces Downloaded, vector"
1831	674718 1508 130702852 416650287 259203.159129803396 260428.893423992804 40 0 39 780 20540
vector 1833  BasicTopology.peer[25].bitTorrentApp.bitTorrentClient.contentManager_54  TotalBytesUploaded:vector  ETV
attr source ContentManager_TotalBytesUploaded
attr title "Total of Bytes Uploaded, vector"
attr unit B
1833	689935 6142 130718586 411645633 259203.206887791814 260413.384103582145 144 32768 4718592 342097920 1.0798836272333e+15
vector 1975  BasicTopology.peer[43].bitTorrentApp.bitTorrentClient.contentManager_54  PiecesDownloaded:vector  ETV
attr source ContentManager_PieceDownloaded
attr title "Pieces Downloaded, vector"
1975	1150274 1506 130964422 379558734 259203.785453384048 259828.080244632309 40 0 39 780 20540
vector 1977  BasicTopology.peer[43].bitTorrentApp.bitTorrentClient.contentManager_54  TotalBytesUploaded:vector  ETV
attr source ContentManager_TotalBytesUploaded
attr title "Total of Bytes Uploaded, vector"
attr unit B
1977	1165485 22833 131007039 388435825 259203.847340633147 260107.60268255981 528 32768 17301504 4576247808 5.2833964666126e+16
vector 1823  BasicTopology.peer[24].bitTorrentApp.bitTorrentClient.contentManager_54  PiecesDownloaded:vector  ETV
attr source ContentManager_PieceDownloaded
attr title "Pieces Downloaded, vector"
1823	633137 1508 131195195 259181601 259204.005468529343 259329.151513979947 40 0 39 780 20540
vector 1825  BasicTopology.peer[24].bitTorrentApp.bitTorrentClient.contentManager_54  TotalBytesUploaded:vector  ETV
attr source ContentManager_TotalBytesUploaded
attr title "Total of Bytes Uploaded, vector"
attr unit B
1825	648362 26356 131257554 334562195 259204.05136705422 259436.647764465315 608 32768 19922944 6066536448 8.0641773373751e+16
vector 1783  BasicTopology.peer[19].bitTorrentApp.bitTorrentClient.contentManager_54  PiecesDownloaded:vector  ETV
attr source ContentManager_PieceDownloaded
attr title "Pieces Downloaded, vector"
1783	494508 1507 131547124 306789859 259204.717606074313 259392.374741998589 40 0 39 780 20540
vector 1785  BasicTopology.peer[19].bitTorrentApp.bitTorrentClient.contentManager_54  TotalBytesUploaded:vector  ETV
attr source ContentManager_TotalBytesUploaded
attr title "Total of Bytes Uploaded, vector"
attr unit B
1785	509714 31687 131560470 394532046 259204.739174268055 260124.410777117247 730 32768 23920640 8742993920 1.3952083686326e+17
vector 2016  BasicTopology.peer[48].bitTorrentApp.bitTorrentClient.contentManager_54  TotalBytesDownloaded:vector  ETV
attr source ContentManager_TotalBytesDownloaded
attr title "Total of Bytes Downloaded, vector"
attr unit B
2016	1288957 13710 131628277 378521702 259204.91173704743 259825.181269133659 320 32768 10485760 1682964480 1.178315687723e+16
vector 1880  BasicTopology.peer[31].bitTorrentApp.bitTorrentClient.contentManager_54  TotalBytesDownloaded:vector  ETV
attr source ContentManager_TotalBytesDownloaded
attr title "Total of Bytes Downloaded, vector"
attr unit B
1880	808066 13705 131762599 397370667 259205.127004749047 260138.142959802342 320 32768 10485760 1682964480 1.178315687723e+16
vector 1887  BasicTopology.peer[32].bitTorrentApp.bitTorrentClient.contentManager_54  PiecesDownloaded:vector  ETV
attr source ContentManager_PieceDownloaded
attr title "Pieces Downloaded, vector"
1887	848529 1506 131838497 315790612 259205.256943679236 259407.057828019221 40 0 39 780 20540
vector 1889  BasicTopology.peer[32].bitTorrentApp.bitTorrentClient.contentManager_54  TotalBytesUploaded:vector  ETV
attr source ContentManager_TotalBytesUploaded
attr title "Total of Bytes Uploaded, vector"
attr unit B
1889	863922 5459 131858886 359059504 259205.279110148568 259479.756818446807 128 32768 4194304 270532608 7.5941893740954e+14
vector 1968  BasicTopology.peer[42].bitTorrentApp.bitTorrentClient.contentManager_54  TotalBytesDownloaded:vector  ETV
attr source ContentManager_TotalBytesDownloaded
attr title "Total of Bytes Downloaded, vector"
attr unit B
1968	1112479 13701 131911994 416981401 259205.340176324585 260429.863804440584 320 32768 10485760 1682964480 1.178315687723e+16
vector 2008  BasicTopology.peer[47].bitTorrentApp.bitTorrentClient.contentManager_54  TotalBytesDownloaded:vector  ETV
attr source ContentManager_TotalBytesDownloaded
attr title "Total of Bytes Downloaded, vector"
attr unit B
2008	1270177 13703 131944815 380960154 259205.376739072771 259832.842876638826 320 32768 10485760 1682964480 1.178315687723e+16
vector 1856  BasicTopology.peer[28].bitTorrentApp.bitTorrentClient.contentManager_54  TotalBytesDownloaded:vector  ETV
attr source ContentManager_TotalBytesDownloaded
attr title "Total of Bytes Downloaded, vector"
attr unit B
1856	758632 13706 131985912 421695924 259205.451210514394 260443.904534424189 320 32768 10485760 1682964480 1.178315687723e+16
vector 2024  BasicTopology.peer[49].bitTorrentApp.bitTorrentClient.contentManager_54  TotalBytesDownloaded:vector  ETV
attr source ContentManager_TotalBytesDownloaded
attr title "Total of Bytes Downloaded, vector"
attr unit B
2024	1306889 13700 132058633 338616405 259205.546454888701 259442.456070269067 320 32768 10485760 1682964480 1.178315687723e+16
vector 2007  BasicTopology.peer[47].bitTorrentApp.bitTorrentClient.contentManager_54  PiecesDownloaded:vector  ETV
attr source ContentManager_PieceDownloaded
attr title "Pieces Downloaded, vector"
2007	1268673 1504 132249371 380960154 259205.836250273316 259832.842876638826 40 0 39 780 20540
vector 2009  BasicTopology.peer[47].bitTorrentApp.bitTorrentClient.contentManager_54  TotalBytesUploaded:vector  ETV
attr source ContentManager_TotalBytesUploaded
attr title "Total of Bytes Uploaded, vector"
attr unit B
2009	1283880 3572 132265836 393776454 259205.859661238919 260122.056646801164 84 32768 2752512 116981760 2.1594021822464e+14
vector 1727  BasicTopology.peer[12].bitTorrentApp.bitTorrentClient.contentManager_54  PiecesDownloaded:vector  ETV
attr source ContentManager_PieceDownloaded
attr title "Pieces Downloaded, vector"
1727	284028 1502 132337752 228987370 259206.10690928061 259298.002054490057 40 0 39 780 20540
vector 1729  BasicTopology.peer[12].bitTorrentApp.bitTorrentClient.contentManager_54  TotalBytesUploaded:vector  ETV
attr source ContentManager_TotalBytesUploaded
attr title "Total of Bytes Uploaded, vector"
attr unit B
1729	299233 9700 132373895 394731924 259206.147436522839 260125.286590292768 227 32768 7438336 847970304 4.2142541230899e+15
vector 1952  BasicTopology.peer[40].bitTorrentApp.bitTorrentClient.contentManager_54  TotalBytesDownloaded:vector  ETV
attr source ContentManager_TotalBytesDownloaded
attr title "Total of Bytes Downloaded, vector"
attr unit B
1952	1063555 13711 132497202 359808137 259206.27679546394 259481.905772809213 320 32768 10485760 1682964480 1.178315687723e+16
vector 1800  BasicTopology.peer[21].bitTorrentApp.bitTorrentClient.contentManager_54  TotalBytesDownloaded:vector  ETV
attr source ContentManager_TotalBytesDownloaded
attr title "Total of Bytes Downloaded, vector"
attr unit B
1800	558120 13704 132752062 371311759 259206.510203080256 259810.972836475302 320 32768 10485760 1682964480 1.178315687723e+16
vector 1879  BasicTopology.peer[31].bitTorrentApp.bitTorrentClient.contentManager_54  PiecesDownloaded:vector  ETV
attr source ContentManager_PieceDownloaded
attr title "Pieces Downloaded, vector"
1879	806561 1505 132844567 397370667 259206.591062388261 260138.142959802342 40 0 39 780 20540
vector 1704  BasicTopology.peer[9].bitTorrentApp.bitTorrentClient.contentManager_54  TotalBytesDownloaded:vector  ETV
attr source ContentManager_TotalBytesDownloaded
attr title "Total of Bytes Downloaded, vector"
attr unit B
1704	225045 13710 132951299 360046435 259206.719607934716 259482.919949645443 320 32768 10485760 1682964480 1.178315687723e+16
vector 1967  BasicTopology.peer[42].bitTorrentApp.bitTorrentClient.contentManager_54  PiecesDownloaded:vector  ETV
attr source ContentManager_PieceDownloaded
attr title "Pieces Downloaded, vector"
1967	1110976 1503 132980035 416981401 259206.752032154005 260429.863804440584 40 0 39 780 20540
vector 1904  BasicTopology.peer[34].bitTorrentApp.bitTorrentClient.contentManager_54  TotalBytesDownloaded:vector  ETV
attr source ContentManager_TotalBytesDownloaded
attr title "Total of Bytes Downloaded, vector"
attr unit B
1904	911140 13712 133055009 420036405 259206.826423077164 260439.596384855442 320 32768 10485760 1682964480 1.178315687723e+16
vector 1840  BasicTopology.peer[26].bitTorrentApp.bitTorrentClient.contentManager_54  TotalBytesDownloaded:vector  ETV
attr source ContentManager_TotalBytesDownloaded
attr title "Total of Bytes Downloaded, vector"
attr unit B
1840	697576 13710 133063980 416298035 259206.834547703857 260427.71631509039 320 32768 10485760 1682964480 1.178315687723e+16
vector 1744  BasicTopology.peer[14].bitTorrentApp.bitTorrentClient.contentManager_54  TotalBytesDownloaded:vector  ETV
attr source ContentManager_TotalBytesDownloaded
attr title "Total of Bytes Downloaded, vector"
attr unit B
1744	372679 13702 133106537 388997446 259206.871795705843 260108.425494776421 320 32768 10485760 1682964480 1.178315687723e+16
vector 1633  BasicTopology.peer[0].bitTorrentApp.bitTorrentClient.contentManager_54  TotalBytesUploaded:vector  ETV
attr source ContentManager_TotalBytesUploaded
attr title "Total of Bytes Uploaded, vector"
attr unit B
1633	43133 14057 133206439 288556004 259207.009806336046 259364.447462343584 328 32768 10747904 1768030208 1.2687724234408e+16
vector 1839  BasicTopology.peer[26].bitTorrentApp.bitTorrentClient.contentManager_54  PiecesDownloaded:vector  ETV
attr source ContentManager_PieceDownloaded
attr title "Pieces Downloaded, vector"
1839	696077 1499 133359832 416298035 259207.299741789066 260427.71631509039 40 0 39 780 20540
vector 1680  BasicTopology.peer[6].bitTorrentApp.bitTorrentClient.contentManager_54  TotalBytesDownloaded:vector  ETV
attr source ContentManager_TotalBytesDownloaded
attr title "Total of Bytes Downloaded, vector"
attr unit B
1680	151408 13703 133508245 270511185 259207.54808397012 259341.871567578145 320 32768 10485760 1682964480 1.178315687723e+16
vector 1679  BasicTopology.peer[6].bitTorrentApp.bitTorrentClient.contentManager_54  PiecesDownloaded:vector  ETV
attr source ContentManager_PieceDownloaded
attr title "Pieces Downloaded, vector"
1679	149901 1507 133693370 270511185 259207.717630546926 259341.871567578145 40 0 39 780 20540
vector 1681  BasicTopology.peer[6].bitTorrentApp.bitTorrentClient.contentManager_54  TotalBytesUploaded:vector  ETV
attr source ContentManager_TotalBytesUploaded
attr title "Total of Bytes Uploaded, vector"
attr unit B
1681	165111 15631 133722886 394864483 259207.762680757677 260125.772013613038 364 32768 11927552 2176778240 1.7332866656502e+16
vector 2023  BasicTopology.peer[49].bitTorrentApp.bitTorrentClient.contentManager_54  PiecesDownloaded:vector  ETV
attr source ContentManager_PieceDownloaded
attr title "Pieces Downloaded, vector"
2023	1305382 1507 133817768 338616405 259207.901292192344 259442.456070269067 40 0 39 780 20540
vector 2025  BasicTopology.peer[49].bitTorrentApp.bitTorrentClient.contentManager_54  TotalBytesUploaded:vector  ETV
attr source ContentManager_TotalBytesUploaded
attr title "Total of Bytes Uploaded, vector"
attr unit B
2025	1320589 15994 133834952 366628330 259207.922537130998 259803.477871280572 372 32768 12189696 2273378304 1.8499358299259e+16
vector 1672  BasicTopology.peer[5].bitTorrentApp.bitTorrentClient.contentManager_54  TotalBytesDownloaded:vector  ETV
attr source ContentManager_TotalBytesDownloaded
attr title "Total of Bytes Downloaded, vector"
attr unit B