version 2
run Test-3-20200424-20:16:32-7681
attr configname Test
attr datetime 20200424-20:16:32
attr experiment "\"Simulation Test\""
attr inifile BasicConfig.ini
attr iterationvars ""
attr iterationvars2 $repetition=3
attr measurement "\"Peers: $peers, Rate: $rate\""
attr network BasicTopology
attr processid 7681
attr repetition 3
attr replication #3
attr resultdir results
attr runnumber 3
attr seedset 3

vector 3  BasicTopology.peer[1].bitTorrentApp.bitTorrentClient  DownloadComplete_Test:vector  ETV
attr source  BitTorrentClient_DownloadComplete_Test
attr title  "Descargas completas (prueba), vector"
vector 5  BasicTopology.peer[2].bitTorrentApp.bitTorrentClient  DownloadComplete_Test:vector  ETV
attr source  BitTorrentClient_DownloadComplete_Test
attr title  "Descargas completas (prueba), vector"
vector 7  BasicTopology.peer[3].bitTorrentApp.bitTorrentClient  DownloadComplete_Test:vector  ETV
attr source  BitTorrentClient_DownloadComplete_Test
attr title  "Descargas completas (prueba), vector"
vector 9  BasicTopology.peer[4].bitTorrentApp.bitTorrentClient  DownloadComplete_Test:vector  ETV
attr source  BitTorrentClient_DownloadComplete_Test
attr title  "Descargas completas (prueba), vector"
vector 11  BasicTopology.peer[5].bitTorrentApp.bitTorrentClient  DownloadComplete_Test:vector  ETV
attr source  BitTorrentClient_DownloadComplete_Test
attr title  "Descargas completas (prueba), vector"
vector 13  BasicTopology.peer[6].bitTorrentApp.bitTorrentClient  DownloadComplete_Test:vector  ETV
attr source  BitTorrentClient_DownloadComplete_Test
attr title  "Descargas completas (prueba), vector"
vector 15  BasicTopology.peer[7].bitTorrentApp.bitTorrentClient  DownloadComplete_Test:vector  ETV
attr source  BitTorrentClient_DownloadComplete_Test
attr title  "Descargas completas (prueba), vector"
vector 17  BasicTopology.peer[8].bitTorrentApp.bitTorrentClient  DownloadComplete_Test:vector  ETV
attr source  BitTorrentClient_DownloadComplete_Test
attr title  "Descargas completas (prueba), vector"
vector 19  BasicTopology.peer[9].bitTorrentApp.bitTorrentClient  DownloadComplete_Test:vector  ETV
attr source  BitTorrentClient_DownloadComplete_Test
attr title  "Descargas completas (prueba), vector"
vector 21  BasicTopology.peer[10].bitTorrentApp.bitTorrentClient  DownloadComplete_Test:vector  ETV
attr source  BitTorrentClient_DownloadComplete_Test
attr title  "Descargas completas (prueba), vector"
vector 23  BasicTopology.peer[11].bitTorrentApp.bitTorrentClient  DownloadComplete_Test:vector  ETV
attr source  BitTorrentClient_DownloadComplete_Test
attr title  "Descargas completas (prueba), vector"
vector 25  BasicTopology.peer[12].bitTorrentApp.bitTorrentClient  DownloadComplete_Test:vector  ETV
attr source  BitTorrentClient_DownloadComplete_Test
attr title  "Descargas completas (prueba), vector"
vector 27  BasicTopology.peer[13].bitTorrentApp.bitTorrentClient  DownloadComplete_Test:vector  ETV
attr source  BitTorrentClient_DownloadComplete_Test
attr title  "Descargas completas (prueba), vector"
vector 29  BasicTopology.peer[14].bitTorrentApp.bitTorrentClient  DownloadComplete_Test:vector  ETV
attr source  BitTorrentClient_DownloadComplete_Test
attr title  "Descargas completas (prueba), vector"
vector 31  BasicTopology.peer[15].bitTorrentApp.bitTorrentClient  DownloadComplete_Test:vector  ETV
attr source  BitTorrentClient_DownloadComplete_Test
attr title  "Descargas completas (prueba), vector"
vector 33  BasicTopology.peer[16].bitTorrentApp.bitTorrentClient  DownloadComplete_Test:vector  ETV
attr source  BitTorrentClient_DownloadComplete_Test
attr title  "Descargas completas (prueba), vector"
vector 35  BasicTopology.peer[17].bitTorrentApp.bitTorrentClient  DownloadComplete_Test:vector  ETV
attr source  BitTorrentClient_DownloadComplete_Test
attr title  "Descargas completas (prueba), vector"
vector 37  BasicTopology.peer[18].bitTorrentApp.bitTorrentClient  DownloadComplete_Test:vector  ETV
attr source  BitTorrentClient_DownloadComplete_Test
attr title  "Descargas completas (prueba), vector"
vector 39  BasicTopology.peer[19].bitTorrentApp.bitTorrentClient  DownloadComplete_Test:vector  ETV
attr source  BitTorrentClient_DownloadComplete_Test
attr title  "Descargas completas (prueba), vector"
vector 41  BasicTopology.peer[20].bitTorrentApp.bitTorrentClient  DownloadComplete_Test:vector  ETV
attr source  BitTorrentClient_DownloadComplete_Test
attr title  "Descargas completas (prueba), vector"
vector 43  BasicTopology.peer[21].bitTorrentApp.bitTorrentClient  DownloadComplete_Test:vector  ETV
attr source  BitTorrentClient_DownloadComplete_Test
attr title  "Descargas completas (prueba), vector"
vector 45  BasicTopology.peer[22].bitTorrentApp.bitTorrentClient  DownloadComplete_Test:vector  ETV
attr source  BitTorrentClient_DownloadComplete_Test
attr title  "Descargas completas (prueba), vector"
vector 47  BasicTopology.peer[23].bitTorrentApp.bitTorrentClient  DownloadComplete_Test:vector  ETV
attr source  BitTorrentClient_DownloadComplete_Test
attr title  "Descargas completas (prueba), vector"
vector 49  BasicTopology.peer[24].bitTorrentApp.bitTorrentClient  DownloadComplete_Test:vector  ETV
attr source  BitTorrentClient_DownloadComplete_Test
attr title  "Descargas completas (prueba), vector"
vector 833  BasicTopology.peer[0].bitTorrentApp.bitTorrentClient.contentManager_26  TotalBytesUploaded:vector  ETV
attr source  ContentManager_TotalBytesUploaded
attr title  "Total of Bytes Uploaded, vector"
attr unit  B
vector 1000  BasicTopology.peer[21].bitTorrentApp.bitTorrentClient.contentManager_26  TotalBytesDownloaded:vector  ETV
attr source  ContentManager_TotalBytesDownloaded
attr title  "Total of Bytes Downloaded, vector"
attr unit  B
vector 912  BasicTopology.peer[10].bitTorrentApp.bitTorrentClient.contentManager_26  TotalBytesDownloaded:vector  ETV
attr source  ContentManager_TotalBytesDownloaded
attr title  "Total of Bytes Downloaded, vector"
attr unit  B
vector 911  BasicTopology.peer[10].bitTorrentApp.bitTorrentClient.contentManager_26  PiecesDownloaded:vector  ETV
attr source  ContentManager_PieceDownloaded
attr title  "Pieces Downloaded, vector"
vector 913  BasicTopology.peer[10].bitTorrentApp.bitTorrentClient.contentManager_26  TotalBytesUploaded:vector  ETV
attr source  ContentManager_TotalBytesUploaded
attr title  "Total of Bytes Uploaded, vector"
attr unit  B
vector 944  BasicTopology.peer[14].bitTorrentApp.bitTorrentClient.contentManager_26  TotalBytesDownloaded:vector  ETV
attr source  ContentManager_TotalBytesDownloaded
attr title  "Total of Bytes Downloaded, vector"
attr unit  B
vector 848  BasicTopology.peer[2].bitTorrentApp.bitTorrentClient.contentManager_26  TotalBytesDownloaded:vector  ETV
attr source  ContentManager_TotalBytesDownloaded
attr title  "Total of Bytes Downloaded, vector"
attr unit  B
vector 864  BasicTopology.peer[4].bitTorrentApp.bitTorrentClient.contentManager_26  TotalBytesDownloaded:vector  ETV
attr source  ContentManager_TotalBytesDownloaded
attr title  "Total of Bytes Downloaded, vector"
attr unit  B
vector 856  BasicTopology.peer[3].bitTorrentApp.bitTorrentClient.contentManager_26  TotalBytesDownloaded:vector  ETV
attr source  ContentManager_TotalBytesDownloaded
attr title  "Total of Bytes Downloaded, vector"
attr unit  B
vector 872  BasicTopology.peer[5].bitTorrentApp.bitTorrentClient.contentManager_26  TotalBytesDownloaded:vector  ETV
attr source  ContentManager_TotalBytesDownloaded
attr title  "Total of Bytes Downloaded, vector"
attr unit  B
vector 928  BasicTopology.peer[12].bitTorrentApp.bitTorrentClient.contentManager_26  TotalBytesDownloaded:vector  ETV
attr source  ContentManager_TotalBytesDownloaded
attr title  "Total of Bytes Downloaded, vector"
attr unit  B
vector 920  BasicTopology.peer[11].bitTorrentApp.bitTorrentClient.contentManager_26  TotalBytesDownloaded:vector  ETV
attr source  ContentManager_TotalBytesDownloaded
attr title  "Total of Bytes Downloaded, vector"
attr unit  B
vector 943  BasicTopology.peer[14].bitTorrentApp.bitTorrentClient.contentManager_26  PiecesDownloaded:vector  ETV
attr source  ContentManager_PieceDownloaded
attr title  "Pieces Downloaded, vector"
vector 945  BasicTopology.peer[14].bitTorrentApp.bitTorrentClient.contentManager_26  TotalBytesUploaded:vector  ETV
attr source  ContentManager_TotalBytesUploaded
attr title  "Total of Bytes Uploaded, vector"
attr unit  B
vector 999  BasicTopology.peer[21].bitTorrentApp.bitTorrentClient.contentManager_26  PiecesDownloaded:vector  ETV
attr source  ContentManager_PieceDownloaded
attr title  "Pieces Downloaded, vector"
vector 1001  BasicTopology.peer[21].bitTorrentApp.bitTorrentClient.contentManager_26  TotalBytesUploaded:vector  ETV
attr source  ContentManager_TotalBytesUploaded
attr title  "Total of Bytes Uploaded, vector"
attr unit  B
vector 936  BasicTopology.peer[13].bitTorrentApp.bitTorrentClient.contentManager_26  TotalBytesDownloaded:vector  ETV
attr source  ContentManager_TotalBytesDownloaded
attr title  "Total of Bytes Downloaded, vector"
attr unit  B
vector 960  BasicTopology.peer[16].bitTorrentApp.bitTorrentClient.contentManager_26  TotalBytesDownloaded:vector  ETV
attr source  ContentManager_TotalBytesDownloaded
attr title  "Total of Bytes Downloaded, vector"
attr unit  B
vector 919  BasicTopology.peer[11].bitTorrentApp.bitTorrentClient.contentManager_26  PiecesDownloaded:vector  ETV
attr source  ContentManager_PieceDownloaded
attr title  "Pieces Downloaded, vector"
vector 921  BasicTopology.peer[11].bitTorrentApp.bitTorrentClient.contentManager_26  TotalBytesUploaded:vector  ETV
attr source  ContentManager_TotalBytesUploaded
attr title  "Total of Bytes Uploaded, vector"
attr unit  B
vector 968  BasicTopology.peer[17].bitTorrentApp.bitTorrentClient.contentManager_26  TotalBytesDownloaded:vector  ETV
attr source  ContentManager_TotalBytesDownloaded
attr title  "Total of Bytes Downloaded, vector"
attr unit  B
vector 992  BasicTopology.peer[20].bitTorrentApp.bitTorrentClient.contentManager_26  TotalBytesDownloaded:vector  ETV
attr source  ContentManager_TotalBytesDownloaded
attr title  "Total of Bytes Downloaded, vector"
attr unit  B
vector 888  BasicTopology.peer[7].bitTorrentApp.bitTorrentClient.contentManager_26  TotalBytesDownloaded:vector  ETV
attr source  ContentManager_TotalBytesDownloaded
attr title  "Total of Bytes Downloaded, vector"
attr unit  B
vector 880  BasicTopology.peer[6].bitTorrentApp.bitTorrentClient.contentManager_26  TotalBytesDownloaded:vector  ETV
attr source  ContentManager_TotalBytesDownloaded
attr title  "Total of Bytes Downloaded, vector"
attr unit  B
vector 927  BasicTopology.peer[12].bitTorrentApp.bitTorrentClient.contentManager_26  PiecesDownloaded:vector  ETV
attr source  ContentManager_PieceDownloaded
attr title  "Pieces Downloaded, vector"
vector 929  BasicTopology.peer[12].bitTorrentApp.bitTorrentClient.contentManager_26  TotalBytesUploaded:vector  ETV
attr source  ContentManager_TotalBytesUploaded
attr title  "Total of Bytes Uploaded, vector"
attr unit  B
vector 847  BasicTopology.peer[2].bitTorrentApp.bitTorrentClient.contentManager_26  PiecesDownloaded:vector  ETV
attr source  ContentManager_PieceDownloaded
attr title  "Pieces Downloaded, vector"
vector 849  BasicTopology.peer[2].bitTorrentApp.bitTorrentClient.contentManager_26  TotalBytesUploaded:vector  ETV
attr source  ContentManager_TotalBytesUploaded
attr title  "Total of Bytes Uploaded, vector"
attr unit  B
vector 959  BasicTopology.peer[16].bitTorrentApp.bitTorrentClient.contentManager_26  PiecesDownloaded:vector  ETV
attr source  ContentManager_PieceDownloaded
attr title  "Pieces Downloaded, vector"
vector 961  BasicTopology.peer[16].bitTorrentApp.bitTorrentClient.contentManager_26  TotalBytesUploaded:vector  ETV
attr source  ContentManager_TotalBytesUploaded
attr title  "Total of Bytes Uploaded, vector"
attr unit  B
vector 904  BasicTopology.peer[9].bitTorrentApp.bitTorrentClient.contentManager_26  TotalBytesDownloaded:vector  ETV
attr source  ContentManager_TotalBytesDownloaded
attr title  "Total of Bytes Downloaded, vector"
attr unit  B
vector 840  BasicTopology.peer[1].bitTorrentApp.bitTorrentClient.contentManager_26  TotalBytesDownloaded:vector  ETV
attr source  ContentManager_TotalBytesDownloaded
attr title  "Total of Bytes Downloaded, vector"
attr unit  B
vector 879  BasicTopology.peer[6].bitTorrentApp.bitTorrentClient.contentManager_26  PiecesDownloaded:vector  ETV
attr source  ContentManager_PieceDownloaded
attr title  "Pieces Downloaded, vector"
vector 976  BasicTopology.peer[18].bitTorrentApp.bitTorrentClient.contentManager_26  TotalBytesDownloaded:vector  ETV
attr source  ContentManager_TotalBytesDownloaded
attr title  "Total of Bytes Downloaded, vector"
attr unit  B
vector 871  BasicTopology.peer[5].bitTorrentApp.bitTorrentClient.contentManager_26  PiecesDownloaded:vector  ETV
attr source  ContentManager_PieceDownloaded
attr title  "Pieces Downloaded, vector"
vector 1016  BasicTopology.peer[23].bitTorrentApp.bitTorrentClient.contentManager_26  TotalBytesDownloaded:vector  ETV
attr source  ContentManager_TotalBytesDownloaded
attr title  "Total of Bytes Downloaded, vector"
attr unit  B
vector 896  BasicTopology.peer[8].bitTorrentApp.bitTorrentClient.contentManager_26  TotalBytesDownloaded:vector  ETV
attr source  ContentManager_TotalBytesDownloaded
attr title  "Total of Bytes Downloaded, vector"
attr unit  B
vector 952  BasicTopology.peer[15].bitTorrentApp.bitTorrentClient.contentManager_26  TotalBytesDownloaded:vector  ETV
attr source  ContentManager_TotalBytesDownloaded
attr title  "Total of Bytes Downloaded, vector"
attr unit  B
vector 1024  BasicTopology.peer[24].bitTorrentApp.bitTorrentClient.contentManager_26  TotalBytesDownloaded:vector  ETV
attr source  ContentManager_TotalBytesDownloaded
attr title  "Total of Bytes Downloaded, vector"
attr unit  B
vector 887  BasicTopology.peer[7].bitTorrentApp.bitTorrentClient.contentManager_26  PiecesDownloaded:vector  ETV
attr source  ContentManager_PieceDownloaded
attr title  "Pieces Downloaded, vector"
vector 1008  BasicTopology.peer[22].bitTorrentApp.bitTorrentClient.contentManager_26  TotalBytesDownloaded:vector  ETV
attr source  ContentManager_TotalBytesDownloaded
attr title  "Total of Bytes Downloaded, vector"
attr unit  B
vector 991  BasicTopology.peer[20].bitTorrentApp.bitTorrentClient.contentManager_26  PiecesDownloaded:vector  ETV
attr source  ContentManager_PieceDownloaded
attr title  "Pieces Downloaded, vector"
vector 993  BasicTopology.peer[20].bitTorrentApp.bitTorrentClient.contentManager_26  TotalBytesUploaded:vector  ETV
attr source  ContentManager_TotalBytesUploaded
attr title  "Total of Bytes Uploaded, vector"
attr unit  B
vector 984  BasicTopology.peer[19].bitTorrentApp.bitTorrentClient.contentManager_26  TotalBytesDownloaded:vector  ETV
attr source  ContentManager_TotalBytesDownloaded
attr title  "Total of Bytes Downloaded, vector"
attr unit  B
vector 1015  BasicTopology.peer[23].bitTorrentApp.bitTorrentClient.contentManager_26  PiecesDownloaded:vector  ETV
attr source  ContentManager_PieceDownloaded
attr title  "Pieces Downloaded, vector"
vector 975  BasicTopology.peer[18].bitTorrentApp.bitTorrentClient.contentManager_26  PiecesDownloaded:vector  ETV
attr source  ContentManager_PieceDownloaded
attr title  "Pieces Downloaded, vector"
vector 855  BasicTopology.peer[3].bitTorrentApp.bitTorrentClient.contentManager_26  PiecesDownloaded:vector  ETV
attr source  ContentManager_PieceDownloaded
attr title  "Pieces Downloaded, vector"
vector 857  BasicTopology.peer[3].bitTorrentApp.bitTorrentClient.contentManager_26  TotalBytesUploaded:vector  ETV
attr source  ContentManager_TotalBytesUploaded
attr title  "Total of Bytes Uploaded, vector"
attr unit  B
vector 967  BasicTopology.peer[17].bitTorrentApp.bitTorrentClient.contentManager_26  PiecesDownloaded:vector  ETV
attr source  ContentManager_PieceDownloaded
attr title  "Pieces Downloaded, vector"
vector 839  BasicTopology.peer[1].bitTorrentApp.bitTorrentClient.contentManager_26  PiecesDownloaded:vector  ETV
attr source  ContentManager_PieceDownloaded
attr title  "Pieces Downloaded, vector"
vector 1007  BasicTopology.peer[22].bitTorrentApp.bitTorrentClient.contentManager_26  PiecesDownloaded:vector  ETV
attr source  ContentManager_PieceDownloaded
attr title  "Pieces Downloaded, vector"
vector 873  BasicTopology.peer[5].bitTorrentApp.bitTorrentClient.contentManager_26  TotalBytesUploaded:vector  ETV
attr source  ContentManager_TotalBytesUploaded
attr title  "Total of Bytes Uploaded, vector"
attr unit  B
vector 841  BasicTopology.peer[1].bitTorrentApp.bitTorrentClient.contentManager_26  TotalBytesUploaded:vector  ETV
attr source  ContentManager_TotalBytesUploaded
attr title  "Total of Bytes Uploaded, vector"
attr unit  B
vector 1023  BasicTopology.peer[24].bitTorrentApp.bitTorrentClient.contentManager_26  PiecesDownloaded:vector  ETV
attr source  ContentManager_PieceDownloaded
attr title  "Pieces Downloaded, vector"
vector 1025  BasicTopology.peer[24].bitTorrentApp.bitTorrentClient.contentManager_26  TotalBytesUploaded:vector  ETV
attr source  ContentManager_TotalBytesUploaded
attr title  "Total of Bytes Uploaded, vector"
attr unit  B
vector 983  BasicTopology.peer[19].bitTorrentApp.bitTorrentClient.contentManager_26  PiecesDownloaded:vector  ETV
attr source  ContentManager_PieceDownloaded
attr title  "Pieces Downloaded, vector"
vector 951  BasicTopology.peer[15].bitTorrentApp.bitTorrentClient.contentManager_26  PiecesDownloaded:vector  ETV
attr source  ContentManager_PieceDownloaded
attr title  "Pieces Downloaded, vector"
vector 1017  BasicTopology.peer[23].bitTorrentApp.bitTorrentClient.contentManager_26  TotalBytesUploaded:vector  ETV
attr source  ContentManager_TotalBytesUploaded
attr title  "Total of Bytes Uploaded, vector"
attr unit  B
vector 1009  BasicTopology.peer[22].bitTorrentApp.bitTorrentClient.contentManager_26  TotalBytesUploaded:vector  ETV
attr source  ContentManager_TotalBytesUploaded
attr title  "Total of Bytes Uploaded, vector"
attr unit  B
vector 895  BasicTopology.peer[8].bitTorrentApp.bitTorrentClient.contentManager_26  PiecesDownloaded:vector  ETV
attr source  ContentManager_PieceDownloaded
attr title  "Pieces Downloaded, vector"
vector 863  BasicTopology.peer[4].bitTorrentApp.bitTorrentClient.contentManager_26  PiecesDownloaded:vector  ETV
attr source  ContentManager_PieceDownloaded
attr title  "Pieces Downloaded, vector"
vector 865  BasicTopology.peer[4].bitTorrentApp.bitTorrentClient.contentManager_26  TotalBytesUploaded:vector  ETV
attr source  ContentManager_TotalBytesUploaded
attr title  "Total of Bytes Uploaded, vector"
attr unit  B
vector 935  BasicTopology.peer[13].bitTorrentApp.bitTorrentClient.contentManager_26  PiecesDownloaded:vector  ETV
attr source  ContentManager_PieceDownloaded
attr title  "Pieces Downloaded, vector"
vector 985  BasicTopology.peer[19].bitTorrentApp.bitTorrentClient.contentManager_26  TotalBytesUploaded:vector  ETV
attr source  ContentManager_TotalBytesUploaded
attr title  "Total of Bytes Uploaded, vector"
attr unit  B
vector 937  BasicTopology.peer[13].bitTorrentApp.bitTorrentClient.contentManager_26  TotalBytesUploaded:vector  ETV
attr source  ContentManager_TotalBytesUploaded
attr title  "Total of Bytes Uploaded, vector"
attr unit  B
vector 881  BasicTopology.peer[6].bitTorrentApp.bitTorrentClient.contentManager_26  TotalBytesUploaded:vector  ETV
attr source  ContentManager_TotalBytesUploaded
attr title  "Total of Bytes Uploaded, vector"
attr unit  B
vector 897  BasicTopology.peer[8].bitTorrentApp.bitTorrentClient.contentManager_26  TotalBytesUploaded:vector  ETV
attr source  ContentManager_TotalBytesUploaded
attr title  "Total of Bytes Uploaded, vector"
attr unit  B
vector 903  BasicTopology.peer[9].bitTorrentApp.bitTorrentClient.contentManager_26  PiecesDownloaded:vector  ETV
attr source  ContentManager_PieceDownloaded
attr title  "Pieces Downloaded, vector"
vector 969  BasicTopology.peer[17].bitTorrentApp.bitTorrentClient.contentManager_26  TotalBytesUploaded:vector  ETV
attr source  ContentManager_TotalBytesUploaded
attr title  "Total of Bytes Uploaded, vector"
attr unit  B
vector 977  BasicTopology.peer[18].bitTorrentApp.bitTorrentClient.contentManager_26  TotalBytesUploaded:vector  ETV
attr source  ContentManager_TotalBytesUploaded
attr title  "Total of Bytes Uploaded, vector"
attr unit  B
3	85	36001	36001
3	34524590	36058.038588199396	36058.038588199
5	86	36001	36001
5	63148625	36109.839070533702	36109.839070534
7	87	36001	36001
7	69462498	36123.614693829338	36123.614693829
9	88	36001	36001
9	66518630	36116.770940718214	36116.770940718
11	89	36001	36001
11	73175480	36131.343345729629	36131.34334573
13	90	36001	36001
13	78094268	36142.353698985084	36142.353698985
15	91	36001	36001
15	73559264	36132.100847052975	36132.100847053
17	92	36001	36001
17	64969957	36113.557029213917	36113.557029214
19	93	36001	36001
19	86841775	36169.114878743752	36169.114878744
21	94	36001	36001
21	48548947	36081.073752053374	36081.073752053
23	95	36001	36001
23	88156737	36302.742660605073	36302.742660605
25	96	36001	36001
25	71847812	36128.654672678202	36128.654672678
27	97	36001	36001
27	83488686	36155.882125096949	36155.882125097
29	98	36001	36001
29	70170687	36125.045705484217	36125.045705484
31	99	36001	36001
31	83123120	36154.22802290846	36154.228022908
33	100	36001	36001
33	73899165	36132.860959239865	36132.86095924
35	101	36001	36001
35	83190087	36154.82926716425	36154.829267164
37	102	36001	36001
37	85839669	36161.554381174167	36161.554381174
39	103	36001	36001
39	86104890	36163.500366298166	36163.500366298
41	104	36001	36001
41	42112195	36070.216669305809	36070.216669306
43	105	36001	36001
43	63462721	36110.47663974651	36110.476639747
45	106	36001	36001
45	70911974	36126.696364738408	36126.696364738
47	107	36001	36001
47	58976530	36101.486352664814	36101.486352665
49	108	36001	36001
49	59543735	36102.618362060879	36102.618362061
833	157482	36001.140026258911	32768
833	170123	36001.153325191158	65536
833	170201	36001.153403946142	98304
833	174526	36001.157590769268	131072
833	174939	36001.157917593247	163840
833	180577	36001.163259305143	196608
833	190670	36001.180902188263	229376
833	197096	36001.193969549831	262144
833	197098	36001.194844449059	294912
833	197100	36001.195033300135	327680
833	274479	36001.560686095858	360448
833	276021	36001.562797504831	393216
833	276307	36001.563329645565	425984
833	277000	36001.56451300681	458752
833	277863	36001.56571969335	491520
833	285973	36001.57454248041	524288
833	293610	36001.583401116074	557056
833	303373	36001.597348240845	589824
833	303672	36001.597745591815	622592
833	306484	36001.601101222991	655360
833	552027	36002.601667918938	688128
833	591593	36002.654849892887	720896
833	591639	36002.654888463362	753664
833	592077	36002.656217816063	786432
833	593639	36002.660677182661	819200
833	595210	36002.665714692696	851968
833	599317	36002.679418239357	884736
833	613236	36002.721552080894	917504
833	618181	36002.734517612533	950272
833	627800	36002.760837177508	983040
833	628063	36002.761687812559	1015808
833	628115	36002.76174387034	1048576
833	628622	36002.763220005718	1081344
833	631758	36002.771679434585	1114112
833	654230	36002.832474341042	1146880
833	665817	36002.864424226622	1179648
833	690680	36002.930843484315	1212416
833	712891	36002.989515627477	1245184
833	1043740	36003.699184791497	1277952
833	1065846	36003.767883788575	1310720
833	1183605	36004.080370243126	1343488
833	1184933	36004.081870658297	1376256
833	1185452	36004.082427313775	1409024
833	1195306	36004.092902178059	1441792
833	1199865	36004.096979259027	1474560
833	1201503	36004.09868469055	1507328
833	1209108	36004.106286745972	1540096
833	1209897	36004.107105862011	1572864
833	1216477	36004.113373817292	1605632
833	1217465	36004.114199689942	1638400
833	1470398	36004.831593564806	1671168
833	1507015	36004.924102929251	1703936
833	1537979	36004.997928609722	1736704
833	1539695	36005.001850682152	1769472
833	1690125	36005.590821289467	1802240
833	1693322	36005.598327857562	1835008
833	1693360	36005.598467190476	1867776
833	1693563	36005.599061227656	1900544
833	1701420	36005.61686043813	1933312
833	1703276	36005.622863317152	1966080
833	1704588	36005.626606826398	1998848
833	1704777	36005.627262697168	2031616
833	1714722	36005.656788527137	2064384
833	1716132	36005.66123734121	2097152
833	1723681	36005.686875042033	2129920
833	1725016	36005.692322465608	2162688
833	1725184	36005.692992238283	2195456
833	1725255	36005.69327776619	2228224
833	1730763	36005.711524678547	2260992
833	1733426	36005.720714150319	2293760
833	1733589	36005.721398005293	2326528
833	1733871	36005.722210489789	2359296
833	1734238	36005.723444890249	2392064
833	1734240	36005.723459855172	2424832
833	1741557	36005.74931285121	2457600
833	1827765	36006.030967792772	2490368
833	1827944	36006.03165085523	2523136
833	1828161	36006.032337618904	2555904
833	1869363	36006.136463798544	2588672
833	1900972	36006.221796674962	2621440
833	1918977	36006.274434026491	2654208
833	2020388	36006.656384746839	2686976
833	2035939	36006.701596129673	2719744
833	2079576	36006.781489404887	2752512
833	2341613	36007.332396430031	2785280
833	2346602	36007.343025520589	2818048
833	2356809	36007.366284463361	2850816
833	2357671	36007.368596390295	2883584
833	2364906	36007.385814918771	2916352
833	2490975	36007.66574752125	2949120
833	2504055	36007.687163827903	2981888
833	2510926	36007.700917375803	3014656
833	2516566	36007.708672848525	3047424
833	2516611	36007.709274953429	3080192
833	2527164	36007.728858706473	3112960
833	2527474	36007.729438839578	3145728
833	2527497	36007.729496623636	3178496
833	2527788	36007.729912202936	3211264
833	2529991	36007.733839069139	3244032
833	2578901	36007.890620578612	3276800
833	2646712	36007.996590753761	3309568
833	2691489	36008.063941705075	3342336
833	2745333	36008.142216936225	3375104
833	2962518	36008.526568681124	3407872
833	3080363	36008.75784323826	3440640
833	3153825	36008.858032725011	3473408
833	3225933	36008.959329068808	3506176
833	3314050	36009.087990343928	3538944
833	3388409	36009.199737364334	3571712
833	4058830	36010.207744591284	3604480
833	4097174	36010.264404207232	3637248
833	4303665	36010.651572801408	3670016
833	5424572	36012.34805536982	3702784
833	5481703	36012.435783353882	3735552
833	5760280	36012.861206381793	3768320
833	6211894	36013.604234463315	3801088
833	6249105	36013.675239049431	3833856
833	6291509	36013.778421809228	3866624
833	6325789	36013.855035683575	3899392
833	6363225	36013.913531408323	3932160
833	6409374	36013.980073921887	3964928
833	6462739	36014.052003447691	3997696
833	6540829	36014.1565031945	4030464
833	6604085	36014.260729844986	4063232
833	6616974	36014.281643450838	4096000
833	6670115	36014.372005333334	4128768
833	6718777	36014.449847426442	4161536
833	6774662	36014.538081483859	4194304
833	7157801	36015.166852369719	4227072
833	7203985	36015.23492641624	4259840
833	7241446	36015.298739485742	4292608
833	7281397	36015.38290438959	4325376
833	7340196	36015.499110343285	4358144
833	7434338	36015.696582408815	4390912
833	7501611	36015.804651579902	4423680
833	7965429	36016.561391006682	4456448
833	8038791	36016.662945621278	4489216
833	8092280	36016.742609111118	4521984
833	8158182	36016.847933128995	4554752
833	8720351	36017.757309721983	4587520
833	8777896	36017.837359262111	4620288
833	8822799	36017.8995050347	4653056
833	8886424	36018.000758085287	4685824
833	8934611	36018.079605656947	4718592
833	8965651	36018.16386125857	4751360
833	8993735	36018.234383056644	4784128
833	9221320	36018.630055889865	4816896
833	9572149	36019.1714955741	4849664
833	9659856	36019.311352784326	4882432
833	10104817	36020.145768841509	4915200
833	10220070	36020.316895433445	4947968
833	10705227	36021.010342173896	4980736
833	11009894	36021.480239419254	5013504
833	11049737	36021.53983839725	5046272
833	11084440	36021.586467312259	5079040
833	11960236	36023.033779422301	5111808
833	12373755	36023.613583266537	5144576
833	12454826	36023.751713182357	5177344
833	12473552	36023.777791637714	5210112
833	12525526	36023.859087086731	5242880
833	13211836	36024.995009989283	5275648
833	13293234	36025.091569149848	5308416
833	13840395	36025.975486360436	5341184
833	14101707	36026.353006610098	5373952
833	15279542	36028.181117393705	5406720
833	15314765	36028.232320677824	5439488
833	15360809	36028.297809735064	5472256
833	16019828	36029.3315497878	5505024
833	16050056	36029.381963763153	5537792
833	16092547	36029.445780204802	5570560
833	16124527	36029.493600772485	5603328
833	16186946	36029.582559728846	5636096
833	16585609	36030.270217551178	5668864
833	17060386	36031.134606682723	5701632
833	17062212	36031.139142412774	5734400
833	17078445	36031.174519673922	5767168
833	17082728	36031.18242070874	5799936
833	17100581	36031.211948441047	5832704
833	17106437	36031.229486338657	5865472
833	17106498	36031.229669278075	5898240
833	17108103	36031.234827697026	5931008
833	17109355	36031.238621693494	5963776
833	17109405	36031.238803744275	5996544
833	17864860	36032.470798407924	6029312
833	17910561	36032.532108487948	6062080
833	18681406	36033.724883744713	6094848
833	18770181	36033.867834938796	6127616
833	19221506	36034.683380478414	6160384
833	19265023	36034.747797904795	6193152
833	19318263	36034.829810351397	6225920
833	19553978	36035.153747518138	6258688
833	19566920	36035.168890934933	6291456
833	19636763	36035.264252919877	6324224
833	19738820	36035.40213468698	6356992
833	20987639	36037.532394951403	6389760
833	21075150	36037.674468851554	6422528
833	21189323	36037.854944797599	6455296
833	22334381	36039.948590218018	6488064
833	22375635	36040.004854231144	6520832
833	22613462	36040.342195721625	6553600
833	22905138	36040.738965382773	6586368
833	22980732	36040.830192069709	6619136
833	23139645	36041.092628347865	6651904
833	23649219	36041.904662267379	6684672
833	23745295	36042.018528064287	6717440
833	23840050	36042.13447307549	6750208
833	23953665	36042.274698348969	6782976
833	23955996	36042.27803289363	6815744