version 2
run Test-11-20200424-20:18:32-7764
attr configname Test
attr datetime 20200424-20:18:32
attr experiment "\"Simulation Test\""
attr inifile BasicConfig.ini
attr iterationvars ""
attr iterationvars2 $repetition=11
attr measurement "\"Peers: $peers, Rate: $rate\""
attr network BasicTopology
attr processid 7764
attr repetition 11
attr replication #11
attr resultdir results
attr runnumber 11
attr seedset 11

vector 3  BasicTopology.peer[1].bitTorrentApp.bitTorrentClient  DownloadComplete_Test:vector  ETV
attr source  BitTorrentClient_DownloadComplete_Test
attr title  "Descargas completas (prueba), vector"
vector 5  BasicTopology.peer[2].bitTorrentApp.bitTorrentClient  DownloadComplete_Test:vector  ETV
attr source  BitTorrentClient_DownloadComplete_Test
attr title  "Descargas completas (prueba), vector"
vector 7  BasicTopology.peer[3].bitTorrentApp.bitTorrentClient  DownloadComplete_Test:vector  ETV
attr source  BitTorrentClient_DownloadComplete_Test
attr title  "Descargas completas (prueba), vector"
vector 9  BasicTopology.peer[4].bitTorrentApp.bitTorrentClient  DownloadComplete_Test:vector  ETV
attr source  BitTorrentClient_DownloadComplete_Test
attr title  "Descargas completas (prueba), vector"
vector 11  BasicTopology.peer[5].bitTorrentApp.bitTorrentClient  DownloadComplete_Test:vector  ETV
attr source  BitTorrentClient_DownloadComplete_Test
attr title  "Descargas completas (prueba), vector"
vector 13  BasicTopology.peer[6].bitTorrentApp.bitTorrentClient  DownloadComplete_Test:vector  ETV
attr source  BitTorrentClient_DownloadComplete_Test
attr title  "Descargas completas (prueba), vector"
vector 15  BasicTopology.peer[7].bitTorrentApp.bitTorrentClient  DownloadComplete_Test:vector  ETV
attr source  BitTorrentClient_DownloadComplete_Test
attr title  "Descargas completas (prueba), vector"
vector 17  BasicTopology.peer[8].bitTorrentApp.bitTorrentClient  DownloadComplete_Test:vector  ETV
attr source  BitTorrentClient_DownloadComplete_Test
attr title  "Descargas completas (prueba), vector"
vector 19  BasicTopology.peer[9].bitTorrentApp.bitTorrentClient  DownloadComplete_Test:vector  ETV
attr source  BitTorrentClient_DownloadComplete_Test
attr title  "Descargas completas (prueba), vector"
vector 21  BasicTopology.peer[10].bitTorrentApp.bitTorrentClient  DownloadComplete_Test:vector  ETV
attr source  BitTorrentClient_DownloadComplete_Test
attr title  "Descargas completas (prueba), vector"
vector 23  BasicTopology.peer[11].bitTorrentApp.bitTorrentClient  DownloadComplete_Test:vector  ETV
attr source  BitTorrentClient_DownloadComplete_Test
attr title  "Descargas completas (prueba), vector"
vector 25  BasicTopology.peer[12].bitTorrentApp.bitTorrentClient  DownloadComplete_Test:vector  ETV
attr source  BitTorrentClient_DownloadComplete_Test
attr title  "Descargas completas (prueba), vector"
vector 27  BasicTopology.peer[13].bitTorrentApp.bitTorrentClient  DownloadComplete_Test:vector  ETV
attr source  BitTorrentClient_DownloadComplete_Test
attr title  "Descargas completas (prueba), vector"
vector 29  BasicTopology.peer[14].bitTorrentApp.bitTorrentClient  DownloadComplete_Test:vector  ETV
attr source  BitTorrentClient_DownloadComplete_Test
attr title  "Descargas completas (prueba), vector"
vector 31  BasicTopology.peer[15].bitTorrentApp.bitTorrentClient  DownloadComplete_Test:vector  ETV
attr source  BitTorrentClient_DownloadComplete_Test
attr title  "Descargas completas (prueba), vector"
vector 33  BasicTopology.peer[16].bitTorrentApp.bitTorrentClient  DownloadComplete_Test:vector  ETV
attr source  BitTorrentClient_DownloadComplete_Test
attr title  "Descargas completas (prueba), vector"
vector 35  BasicTopology.peer[17].bitTorrentApp.bitTorrentClient  DownloadComplete_Test:vector  ETV
attr source  BitTorrentClient_DownloadComplete_Test
attr title  "Descargas completas (prueba), vector"
vector 37  BasicTopology.peer[18].bitTorrentApp.bitTorrentClient  DownloadComplete_Test:vector  ETV
attr source  BitTorrentClient_DownloadComplete_Test
attr title  "Descargas completas (prueba), vector"
vector 39  BasicTopology.peer[19].bitTorrentApp.bitTorrentClient  DownloadComplete_Test:vector  ETV
attr source  BitTorrentClient_DownloadComplete_Test
attr title  "Descargas completas (prueba), vector"
vector 41  BasicTopology.peer[20].bitTorrentApp.bitTorrentClient  DownloadComplete_Test:vector  ETV
attr source  BitTorrentClient_DownloadComplete_Test
attr title  "Descargas completas (prueba), vector"
vector 43  BasicTopology.peer[21].bitTorrentApp.bitTorrentClient  DownloadComplete_Test:vector  ETV
attr source  BitTorrentClient_DownloadComplete_Test
attr title  "Descargas completas (prueba), vector"
vector 45  BasicTopology.peer[22].bitTorrentApp.bitTorrentClient  DownloadComplete_Test:vector  ETV
attr source  BitTorrentClient_DownloadComplete_Test
attr title  "Descargas completas (prueba), vector"
vector 47  BasicTopology.peer[23].bitTorrentApp.bitTorrentClient  DownloadComplete_Test:vector  ETV
attr source  BitTorrentClient_DownloadComplete_Test
attr title  "Descargas completas (prueba), vector"
vector 49  BasicTopology.peer[24].bitTorrentApp.bitTorrentClient  DownloadComplete_Test:vector  ETV
attr source  BitTorrentClient_DownloadComplete_Test
attr title  "Descargas completas (prueba), vector"
vector 833  BasicTopology.peer[0].bitTorrentApp.bitTorrentClient.contentManager_26  TotalBytesUploaded:vector  ETV
attr source  ContentManager_TotalBytesUploaded
attr title  "Total of Bytes Uploaded, vector"
attr unit  B
vector 992  BasicTopology.peer[20].bitTorrentApp.bitTorrentClient.contentManager_26  TotalBytesDownloaded:vector  ETV
attr source  ContentManager_TotalBytesDownloaded
attr title  "Total of Bytes Downloaded, vector"
attr unit  B
vector 991  BasicTopology.peer[20].bitTorrentApp.bitTorrentClient.contentManager_26  PiecesDownloaded:vector  ETV
attr source  ContentManager_PieceDownloaded
attr title  "Pieces Downloaded, vector"
vector 993  BasicTopology.peer[20].bitTorrentApp.bitTorrentClient.contentManager_26  TotalBytesUploaded:vector  ETV
attr source  ContentManager_TotalBytesUploaded
attr title  "Total of Bytes Uploaded, vector"
attr unit  B
vector 840  BasicTopology.peer[1].bitTorrentApp.bitTorrentClient.contentManager_26  TotalBytesDownloaded:vector  ETV
attr source  ContentManager_TotalBytesDownloaded
attr title  "Total of Bytes Downloaded, vector"
attr unit  B
vector 920  BasicTopology.peer[11].bitTorrentApp.bitTorrentClient.contentManager_26  TotalBytesDownloaded:vector  ETV
attr source  ContentManager_TotalBytesDownloaded
attr title  "Total of Bytes Downloaded, vector"
attr unit  B
vector 936  BasicTopology.peer[13].bitTorrentApp.bitTorrentClient.contentManager_26  TotalBytesDownloaded:vector  ETV
attr source  ContentManager_TotalBytesDownloaded
attr title  "Total of Bytes Downloaded, vector"
attr unit  B
vector 928  BasicTopology.peer[12].bitTorrentApp.bitTorrentClient.contentManager_26  TotalBytesDownloaded:vector  ETV
attr source  ContentManager_TotalBytesDownloaded
attr title  "Total of Bytes Downloaded, vector"
attr unit  B
vector 888  BasicTopology.peer[7].bitTorrentApp.bitTorrentClient.contentManager_26  TotalBytesDownloaded:vector  ETV
attr source  ContentManager_TotalBytesDownloaded
attr title  "Total of Bytes Downloaded, vector"
attr unit  B
vector 839  BasicTopology.peer[1].bitTorrentApp.bitTorrentClient.contentManager_26  PiecesDownloaded:vector  ETV
attr source  ContentManager_PieceDownloaded
attr title  "Pieces Downloaded, vector"
vector 841  BasicTopology.peer[1].bitTorrentApp.bitTorrentClient.contentManager_26  TotalBytesUploaded:vector  ETV
attr source  ContentManager_TotalBytesUploaded
attr title  "Total of Bytes Uploaded, vector"
attr unit  B
vector 960  BasicTopology.peer[16].bitTorrentApp.bitTorrentClient.contentManager_26  TotalBytesDownloaded:vector  ETV
attr source  ContentManager_TotalBytesDownloaded
attr title  "Total of Bytes Downloaded, vector"
attr unit  B
vector 880  BasicTopology.peer[6].bitTorrentApp.bitTorrentClient.contentManager_26  TotalBytesDownloaded:vector  ETV
attr source  ContentManager_TotalBytesDownloaded
attr title  "Total of Bytes Downloaded, vector"
attr unit  B
vector 919  BasicTopology.peer[11].bitTorrentApp.bitTorrentClient.contentManager_26  PiecesDownloaded:vector  ETV
attr source  ContentManager_PieceDownloaded
attr title  "Pieces Downloaded, vector"
vector 864  BasicTopology.peer[4].bitTorrentApp.bitTorrentClient.contentManager_26  TotalBytesDownloaded:vector  ETV
attr source  ContentManager_TotalBytesDownloaded
attr title  "Total of Bytes Downloaded, vector"
attr unit  B
vector 921  BasicTopology.peer[11].bitTorrentApp.bitTorrentClient.contentManager_26  TotalBytesUploaded:vector  ETV
attr source  ContentManager_TotalBytesUploaded
attr title  "Total of Bytes Uploaded, vector"
attr unit  B
vector 912  BasicTopology.peer[10].bitTorrentApp.bitTorrentClient.contentManager_26  TotalBytesDownloaded:vector  ETV
attr source  ContentManager_TotalBytesDownloaded
attr title  "Total of Bytes Downloaded, vector"
attr unit  B
vector 856  BasicTopology.peer[3].bitTorrentApp.bitTorrentClient.contentManager_26  TotalBytesDownloaded:vector  ETV
attr source  ContentManager_TotalBytesDownloaded
attr title  "Total of Bytes Downloaded, vector"
attr unit  B
vector 896  BasicTopology.peer[8].bitTorrentApp.bitTorrentClient.contentManager_26  TotalBytesDownloaded:vector  ETV
attr source  ContentManager_TotalBytesDownloaded
attr title  "Total of Bytes Downloaded, vector"
attr unit  B
vector 935  BasicTopology.peer[13].bitTorrentApp.bitTorrentClient.contentManager_26  PiecesDownloaded:vector  ETV
attr source  ContentManager_PieceDownloaded
attr title  "Pieces Downloaded, vector"
vector 937  BasicTopology.peer[13].bitTorrentApp.bitTorrentClient.contentManager_26  TotalBytesUploaded:vector  ETV
attr source  ContentManager_TotalBytesUploaded
attr title  "Total of Bytes Uploaded, vector"
attr unit  B
vector 927  BasicTopology.peer[12].bitTorrentApp.bitTorrentClient.contentManager_26  PiecesDownloaded:vector  ETV
attr source  ContentManager_PieceDownloaded
attr title  "Pieces Downloaded, vector"
vector 929  BasicTopology.peer[12].bitTorrentApp.bitTorrentClient.contentManager_26  TotalBytesUploaded:vector  ETV
attr source  ContentManager_TotalBytesUploaded
attr title  "Total of Bytes Uploaded, vector"
attr unit  B
vector 911  BasicTopology.peer[10].bitTorrentApp.bitTorrentClient.contentManager_26  PiecesDownloaded:vector  ETV
attr source  ContentManager_PieceDownloaded
attr title  "Pieces Downloaded, vector"
vector 913  BasicTopology.peer[10].bitTorrentApp.bitTorrentClient.contentManager_26  TotalBytesUploaded:vector  ETV
attr source  ContentManager_TotalBytesUploaded
attr title  "Total of Bytes Uploaded, vector"
attr unit  B
vector 984  BasicTopology.peer[19].bitTorrentApp.bitTorrentClient.contentManager_26  TotalBytesDownloaded:vector  ETV
attr source  ContentManager_TotalBytesDownloaded
attr title  "Total of Bytes Downloaded, vector"
attr unit  B
vector 872  BasicTopology.peer[5].bitTorrentApp.bitTorrentClient.contentManager_26  TotalBytesDownloaded:vector  ETV
attr source  ContentManager_TotalBytesDownloaded
attr title  "Total of Bytes Downloaded, vector"
attr unit  B
vector 904  BasicTopology.peer[9].bitTorrentApp.bitTorrentClient.contentManager_26  TotalBytesDownloaded:vector  ETV
attr source  ContentManager_TotalBytesDownloaded
attr title  "Total of Bytes Downloaded, vector"
attr unit  B
vector 976  BasicTopology.peer[18].bitTorrentApp.bitTorrentClient.contentManager_26  TotalBytesDownloaded:vector  ETV
attr source  ContentManager_TotalBytesDownloaded
attr title  "Total of Bytes Downloaded, vector"
attr unit  B
vector 1016  BasicTopology.peer[23].bitTorrentApp.bitTorrentClient.contentManager_26  TotalBytesDownloaded:vector  ETV
attr source  ContentManager_TotalBytesDownloaded
attr title  "Total of Bytes Downloaded, vector"
attr unit  B
vector 1000  BasicTopology.peer[21].bitTorrentApp.bitTorrentClient.contentManager_26  TotalBytesDownloaded:vector  ETV
attr source  ContentManager_TotalBytesDownloaded
attr title  "Total of Bytes Downloaded, vector"
attr unit  B
vector 944  BasicTopology.peer[14].bitTorrentApp.bitTorrentClient.contentManager_26  TotalBytesDownloaded:vector  ETV
attr source  ContentManager_TotalBytesDownloaded
attr title  "Total of Bytes Downloaded, vector"
attr unit  B
vector 871  BasicTopology.peer[5].bitTorrentApp.bitTorrentClient.contentManager_26  PiecesDownloaded:vector  ETV
attr source  ContentManager_PieceDownloaded
attr title  "Pieces Downloaded, vector"
vector 1024  BasicTopology.peer[24].bitTorrentApp.bitTorrentClient.contentManager_26  TotalBytesDownloaded:vector  ETV
attr source  ContentManager_TotalBytesDownloaded
attr title  "Total of Bytes Downloaded, vector"
attr unit  B
vector 873  BasicTopology.peer[5].bitTorrentApp.bitTorrentClient.contentManager_26  TotalBytesUploaded:vector  ETV
attr source  ContentManager_TotalBytesUploaded
attr title  "Total of Bytes Uploaded, vector"
attr unit  B
vector 1015  BasicTopology.peer[23].bitTorrentApp.bitTorrentClient.contentManager_26  PiecesDownloaded:vector  ETV
attr source  ContentManager_PieceDownloaded
attr title  "Pieces Downloaded, vector"
vector 855  BasicTopology.peer[3].bitTorrentApp.bitTorrentClient.contentManager_26  PiecesDownloaded:vector  ETV
attr source  ContentManager_PieceDownloaded
attr title  "Pieces Downloaded, vector"
vector 1008  BasicTopology.peer[22].bitTorrentApp.bitTorrentClient.contentManager_26  TotalBytesDownloaded:vector  ETV
attr source  ContentManager_TotalBytesDownloaded
attr title  "Total of Bytes Downloaded, vector"
attr unit  B
vector 848  BasicTopology.peer[2].bitTorrentApp.bitTorrentClient.contentManager_26  TotalBytesDownloaded:vector  ETV
attr source  ContentManager_TotalBytesDownloaded
attr title  "Total of Bytes Downloaded, vector"
attr unit  B
vector 887  BasicTopology.peer[7].bitTorrentApp.bitTorrentClient.contentManager_26  PiecesDownloaded:vector  ETV
attr source  ContentManager_PieceDownloaded
attr title  "Pieces Downloaded, vector"
vector 1017  BasicTopology.peer[23].bitTorrentApp.bitTorrentClient.contentManager_26  TotalBytesUploaded:vector  ETV
attr source  ContentManager_TotalBytesUploaded
attr title  "Total of Bytes Uploaded, vector"
attr unit  B
vector 983  BasicTopology.peer[19].bitTorrentApp.bitTorrentClient.contentManager_26  PiecesDownloaded:vector  ETV
attr source  ContentManager_PieceDownloaded
attr title  "Pieces Downloaded, vector"
vector 952  BasicTopology.peer[15].bitTorrentApp.bitTorrentClient.contentManager_26  TotalBytesDownloaded:vector  ETV
attr source  ContentManager_TotalBytesDownloaded
attr title  "Total of Bytes Downloaded, vector"
attr unit  B
vector 903  BasicTopology.peer[9].bitTorrentApp.bitTorrentClient.contentManager_26  PiecesDownloaded:vector  ETV
attr source  ContentManager_PieceDownloaded
attr title  "Pieces Downloaded, vector"
vector 975  BasicTopology.peer[18].bitTorrentApp.bitTorrentClient.contentManager_26  PiecesDownloaded:vector  ETV
attr source  ContentManager_PieceDownloaded
attr title  "Pieces Downloaded, vector"
vector 895  BasicTopology.peer[8].bitTorrentApp.bitTorrentClient.contentManager_26  PiecesDownloaded:vector  ETV
attr source  ContentManager_PieceDownloaded
attr title  "Pieces Downloaded, vector"
vector 951  BasicTopology.peer[15].bitTorrentApp.bitTorrentClient.contentManager_26  PiecesDownloaded:vector  ETV
attr source  ContentManager_PieceDownloaded
attr title  "Pieces Downloaded, vector"
vector 999  BasicTopology.peer[21].bitTorrentApp.bitTorrentClient.contentManager_26  PiecesDownloaded:vector  ETV
attr source  ContentManager_PieceDownloaded
attr title  "Pieces Downloaded, vector"
vector 1001  BasicTopology.peer[21].bitTorrentApp.bitTorrentClient.contentManager_26  TotalBytesUploaded:vector  ETV
attr source  ContentManager_TotalBytesUploaded
attr title  "Total of Bytes Uploaded, vector"
attr unit  B
vector 857  BasicTopology.peer[3].bitTorrentApp.bitTorrentClient.contentManager_26  TotalBytesUploaded:vector  ETV
attr source  ContentManager_TotalBytesUploaded
attr title  "Total of Bytes Uploaded, vector"
attr unit  B
vector 959  BasicTopology.peer[16].bitTorrentApp.bitTorrentClient.contentManager_26  PiecesDownloaded:vector  ETV
attr source  ContentManager_PieceDownloaded
attr title  "Pieces Downloaded, vector"
vector 879  BasicTopology.peer[6].bitTorrentApp.bitTorrentClient.contentManager_26  PiecesDownloaded:vector  ETV
attr source  ContentManager_PieceDownloaded
attr title  "Pieces Downloaded, vector"
vector 943  BasicTopology.peer[14].bitTorrentApp.bitTorrentClient.contentManager_26  PiecesDownloaded:vector  ETV
attr source  ContentManager_PieceDownloaded
attr title  "Pieces Downloaded, vector"
vector 1007  BasicTopology.peer[22].bitTorrentApp.bitTorrentClient.contentManager_26  PiecesDownloaded:vector  ETV
attr source  ContentManager_PieceDownloaded
attr title  "Pieces Downloaded, vector"
vector 1009  BasicTopology.peer[22].bitTorrentApp.bitTorrentClient.contentManager_26  TotalBytesUploaded:vector  ETV
attr source  ContentManager_TotalBytesUploaded
attr title  "Total of Bytes Uploaded, vector"
attr unit  B
vector 1023  BasicTopology.peer[24].bitTorrentApp.bitTorrentClient.contentManager_26  PiecesDownloaded:vector  ETV
attr source  ContentManager_PieceDownloaded
attr title  "Pieces Downloaded, vector"
vector 968  BasicTopology.peer[17].bitTorrentApp.bitTorrentClient.contentManager_26  TotalBytesDownloaded:vector  ETV
attr source  ContentManager_TotalBytesDownloaded
attr title  "Total of Bytes Downloaded, vector"
attr unit  B
vector 847  BasicTopology.peer[2].bitTorrentApp.bitTorrentClient.contentManager_26  PiecesDownloaded:vector  ETV
attr source  ContentManager_PieceDownloaded
attr title  "Pieces Downloaded, vector"
vector 849  BasicTopology.peer[2].bitTorrentApp.bitTorrentClient.contentManager_26  TotalBytesUploaded:vector  ETV
attr source  ContentManager_TotalBytesUploaded
attr title  "Total of Bytes Uploaded, vector"
attr unit  B
vector 1025  BasicTopology.peer[24].bitTorrentApp.bitTorrentClient.contentManager_26  TotalBytesUploaded:vector  ETV
attr source  ContentManager_TotalBytesUploaded
attr title  "Total of Bytes Uploaded, vector"
attr unit  B
vector 967  BasicTopology.peer[17].bitTorrentApp.bitTorrentClient.contentManager_26  PiecesDownloaded:vector  ETV
attr source  ContentManager_PieceDownloaded
attr title  "Pieces Downloaded, vector"
vector 889  BasicTopology.peer[7].bitTorrentApp.bitTorrentClient.contentManager_26  TotalBytesUploaded:vector  ETV
attr source  ContentManager_TotalBytesUploaded
attr title  "Total of Bytes Uploaded, vector"
attr unit  B
vector 953  BasicTopology.peer[15].bitTorrentApp.bitTorrentClient.contentManager_26  TotalBytesUploaded:vector  ETV
attr source  ContentManager_TotalBytesUploaded
attr title  "Total of Bytes Uploaded, vector"
attr unit  B
vector 897  BasicTopology.peer[8].bitTorrentApp.bitTorrentClient.contentManager_26  TotalBytesUploaded:vector  ETV
attr source  ContentManager_TotalBytesUploaded
attr title  "Total of Bytes Uploaded, vector"
attr unit  B
vector 863  BasicTopology.peer[4].bitTorrentApp.bitTorrentClient.contentManager_26  PiecesDownloaded:vector  ETV
attr source  ContentManager_PieceDownloaded
attr title  "Pieces Downloaded, vector"
vector 961  BasicTopology.peer[16].bitTorrentApp.bitTorrentClient.contentManager_26  TotalBytesUploaded:vector  ETV
attr source  ContentManager_TotalBytesUploaded
attr title  "Total of Bytes Uploaded, vector"
attr unit  B
vector 865  BasicTopology.peer[4].bitTorrentApp.bitTorrentClient.contentManager_26  TotalBytesUploaded:vector  ETV
attr source  ContentManager_TotalBytesUploaded
attr title  "Total of Bytes Uploaded, vector"
attr unit  B
vector 905  BasicTopology.peer[9].bitTorrentApp.bitTorrentClient.contentManager_26  TotalBytesUploaded:vector  ETV
attr source  ContentManager_TotalBytesUploaded
attr title  "Total of Bytes Uploaded, vector"
attr unit  B
vector 985  BasicTopology.peer[19].bitTorrentApp.bitTorrentClient.contentManager_26  TotalBytesUploaded:vector  ETV
attr source  ContentManager_TotalBytesUploaded
attr title  "Total of Bytes Uploaded, vector"
attr unit  B
3	85	36001	36001
3	28446382	36052.42767122792	36052.427671228
5	86	36001	36001
5	77925460	36147.862251324199	36147.862251324
7	87	36001	36001
7	54421114	36096.470966963866	36096.470966964
9	88	36001	36001
9	78321300	36149.271048574051	36149.271048574
11	89	36001	36001
11	73507103	36136.619587674631	36136.619587675
13	90	36001	36001
13	76845429	36145.140978624846	36145.140978625
15	91	36001	36001
15	69514922	36128.158166915146	36128.158166915
17	92	36001	36001
17	68545463	36125.754547380892	36125.754547381
19	93	36001	36001
19	79239513	36151.849267175763	36151.849267176
21	94	36001	36001
21	25053545	36047.188451508736	36047.188451509
23	95	36001	36001
23	47050676	36082.834137957182	36082.834137957
25	96	36001	36001
25	65496657	36119.187891825573	36119.187891826
27	97	36001	36001
27	66577112	36121.437768263928	36121.437768264
29	98	36001	36001
29	79633074	36153.333964178644	36153.333964179
31	99	36001	36001
31	70545645	36130.30344622735	36130.303446227
33	100	36001	36001
33	76537967	36143.971017547372	36143.971017547
35	101	36001	36001
35	80273875	36155.024007890842	36155.024007891
37	102	36001	36001
37	81431791	36159.174796365046	36159.174796365
39	103	36001	36001
39	81957426	36160.984230429152	36160.984230429
41	104	36001	36001
41	32398556	36058.727588192012	36058.727588192
43	105	36001	36001
43	50052246	36088.242196674554	36088.242196675
45	106	36001	36001
45	60185207	36108.042288266682	36108.042288267
47	107	36001	36001
47	63797957	36115.638752686923	36115.638752687
49	108	36001	36001
49	78106068	36148.615016514664	36148.615016515
833	135217	36001.115279720888	32768
833	140097	36001.120652527365	65536
833	149279	36001.127101880105	98304
833	154078	36001.130781147772	131072
833	155855	36001.132182224131	163840
833	161036	36001.136323918668	196608
833	162803	36001.13770421771	229376
833	172253	36001.146179620391	262144
833	176768	36001.15054350054	294912
833	178943	36001.15261233661	327680
833	180085	36001.154132589103	360448
833	191560	36001.167849908518	393216
833	192334	36001.169191058352	425984
833	193680	36001.170955720145	458752
833	194013	36001.171661144985	491520
833	194300	36001.172414789443	524288
833	194593	36001.172916981974	557056
833	194949	36001.173723619886	589824
833	195006	36001.174228120867	622592
833	198562	36001.187367293263	655360
833	491754	36002.608022750592	688128
833	523893	36002.652476594397	720896
833	587178	36003.710422468468	753664
833	602311	36003.779286772072	786432
833	656962	36004.038124203742	819200
833	658535	36004.039431290072	851968
833	658761	36004.039683244647	884736
833	659107	36004.040003839911	917504
833	659330	36004.040234055955	950272
833	660646	36004.041387402965	983040
833	662021	36004.042856569825	1015808
833	679371	36004.058919944187	1048576
833	686773	36004.066060682781	1081344
833	687104	36004.066374096005	1114112
833	877042	36004.612715967375	1146880
833	878534	36004.615289553221	1179648
833	882404	36004.621790482577	1212416
833	885114	36004.625281839157	1245184
833	885275	36004.625786666002	1277952
833	885805	36004.627228698717	1310720
833	900944	36004.650682139796	1343488
833	901434	36004.651442713086	1376256
833	902116	36004.652662526141	1409024
833	902377	36004.653119173622	1441792
833	955383	36004.855844794012	1474560
833	966840	36004.900432251876	1507328
833	981139	36004.959832807964	1540096
833	1025700	36005.035593319303	1572864
833	1116042	36005.251657468969	1605632
833	1124728	36005.292596642169	1638400
833	1141729	36005.578615800774	1671168
833	1142090	36005.579629178834	1703936
833	1147268	36005.589348714128	1736704
833	1147296	36005.589515853435	1769472
833	1147332	36005.589864417239	1802240
833	1151179	36005.597663729327	1835008
833	1151284	36005.59806266256	1867776
833	1151531	36005.59869816973	1900544
833	1152207	36005.599984244086	1933312
833	1152395	36005.600588911337	1966080
833	1179117	36005.718445693148	1998848
833	1193807	36005.760871308179	2031616
833	1211889	36005.813603723802	2064384
833	1227390	36005.859653653335	2097152
833	1246954	36005.930447849346	2129920
833	1288549	36006.112566209606	2162688
833	1328618	36006.197539050947	2195456
833	1339879	36006.249638672566	2228224
833	1357514	36006.315916042448	2260992
833	1361803	36006.330569319602	2293760
833	1372991	36006.368081573462	2326528
833	1378175	36006.386201471597	2359296
833	1384050	36006.40563415229	2392064
833	1598389	36007.038808694393	2424832
833	1606026	36007.04993123501	2457600
833	1624184	36007.069688730267	2490368
833	1628293	36007.074442558678	2523136
833	1643535	36007.092700276945	2555904
833	1643797	36007.093098636157	2588672
833	1644303	36007.093672700188	2621440
833	1645011	36007.094541297759	2654208
833	1646020	36007.095574015888	2686976
833	1646022	36007.095576978388	2719744
833	1769858	36007.355682695827	2752512
833	2097310	36007.994353716618	2785280
833	2139031	36008.088140054771	2818048
833	2195336	36008.217974691389	2850816
833	2272167	36008.419899329378	2883584
833	2278237	36008.439031582934	2916352
833	2279578	36008.443297213544	2949120
833	2289762	36008.476111606421	2981888
833	2290069	36008.477345437627	3014656
833	2291261	36008.481220551805	3047424
833	2302997	36008.509024804021	3080192
833	2305227	36008.511786909109	3112960
833	2316906	36008.534587245327	3145728
833	2329583	36008.571226444107	3178496
833	2350394	36008.643247302184	3211264
833	2360109	36008.67934620972	3244032
833	2385553	36008.764983513729	3276800
833	2398346	36008.807249234291	3309568
833	2442369	36008.892995261723	3342336
833	2600212	36009.285190002942	3375104
833	2619221	36009.343587598961	3407872
833	2629728	36009.375251044291	3440640
833	2648381	36009.431402177819	3473408
833	2653513	36009.445741920381	3506176
833	2654891	36009.448666313466	3538944
833	2660036	36009.460199156188	3571712
833	2664179	36009.46877478756	3604480
833	2666392	36009.473813678372	3637248
833	2671201	36009.48487495571	3670016
833	2671782	36009.48666500585	3702784
833	2676295	36009.497493980484	3735552
833	2677204	36009.499785231218	3768320
833	2677441	36009.500358373666	3801088
833	2766643	36009.73900210052	3833856
833	2803728	36009.815104110698	3866624
833	2862966	36009.930247304431	3899392
833	3378701	36011.051231660537	3932160
833	3402309	36011.10844358444	3964928
833	3452272	36011.194302068277	3997696
833	3509646	36011.299099043569	4030464
833	3518942	36011.341403058929	4063232
833	3533527	36011.400963373595	4096000
833	3769248	36011.987801871062	4128768
833	3825015	36012.092836995833	4161536
833	4053076	36012.464498534233	4194304
833	4126868	36012.588475582702	4227072
833	4161224	36012.654020185457	4259840
833	4247663	36012.834627235157	4292608
833	4248029	36012.835528486717	4325376
833	4425314	36013.218504447112	4358144
833	4496255	36013.328989603415	4390912
833	4801068	36013.872392473787	4423680
833	4831728	36013.922965307709	4456448
833	4855322	36013.960580322475	4489216
833	4887781	36014.006328287414	4521984
833	4911081	36014.040304914643	4554752
833	5322482	36014.777369637225	4587520
833	5382996	36014.86478908984	4620288
833	5431173	36014.956870092302	4653056
833	5491386	36015.068980545982	4685824
833	5497550	36015.088282803328	4718592
833	5541193	36015.165975777432	4751360
833	5578290	36015.2268934035	4784128
833	5578551	36015.227193409842	4816896
833	5629852	36015.311776973311	4849664
833	5715606	36015.461763377433	4882432
833	5776459	36015.5678319834	4915200
833	5836181	36015.662026484645	4947968
833	5882296	36015.736971691895	4980736
833	6454570	36016.871816018206	5013504
833	6544356	36017.000986500592	5046272
833	6661320	36017.180787344026	5079040
833	6727014	36017.269029075249	5111808
833	6750001	36017.303772282668	5144576
833	6973519	36017.612409717857	5177344
833	7029463	36017.689270167826	5210112
833	7068356	36017.761559791662	5242880
833	7114202	36017.859830665967	5275648
833	7144832	36017.95384009469	5308416
833	7337531	36018.361553818671	5341184
833	7359803	36018.402382450287	5373952
833	7389035	36018.456805277109	5406720
833	7678151	36019.019763930061	5439488
833	7938795	36019.481573488824	5472256
833	8036505	36019.66346976166	5505024
833	8086438	36019.732199695666	5537792
833	8335007	36020.113079284801	5570560
833	8528055	36020.507866861576	5603328
833	8528106	36020.507974754308	5636096
833	8528526	36020.508562468716	5668864
833	8593403	36020.607336461039	5701632
833	8611793	36020.653110845555	5734400
833	8736961	36020.901316920111	5767168
833	8782913	36020.978501991721	5799936
833	8930131	36021.211998756285	5832704
833	9105213	36021.701215930453	5865472
833	9124072	36021.727187386045	5898240
833	9159593	36021.78208408614	5931008
833	9369592	36022.05665163383	5963776
833	9807904	36022.809051252989	5996544
833	9830713	36022.850023946112	6029312
833	10075130	36023.226845499576	6062080
833	10082276	36023.239358420655	6094848
833	10161222	36023.369918209207	6127616
833	10230511	36023.485598842378	6160384
833	11131997	36024.939256318383	6193152
833	11150237	36024.969418770265	6225920
833	11168310	36024.99412027767	6258688
833	11185907	36025.024558486839	6291456
833	11220072	36025.068130375648	6324224
833	11343237	36025.36402424338	6356992
833	11506574	36025.598424414626	6389760
833	11839281	36026.113927277279	6422528
833	12123783	36026.638559299169	6455296
833	12175422	36026.712597588134	6488064
833	12202207	36026.75354244802	6520832
833	12251520	36026.821692478283	6553600
833	12319319	36026.920329851892	6586368
833	12355837	36026.975539655206	6619136
833	12508766	36027.225799251924	6651904
833	12509150	36027.226361659562	6684672
833	12518398	36027.238651809523	6717440
833	12521079	36027.241859993517	6750208
833	12600556	36027.380166638864	6782976
833	12610059	36027.397866722618	6815744
833	12628663	36027.431005204325	6848512
833	12920474	36028.009996527711	6881280
833	13062243	36028.205964952935	6914048
833	13241547	36028.46417746198	6946816
833	13251681	36028.4788227496	6979584
833	13266537	36028.49958745328	7012352