version 2
run Test-10-20200424-20:18:13-7754
attr configname Test
attr datetime 20200424-20:18:13
attr experiment "\"Simulation Test\""
attr inifile BasicConfig.ini
attr iterationvars ""
attr iterationvars2 $repetition=10
attr measurement "\"Peers: $peers, Rate: $rate\""
attr network BasicTopology
attr processid 7754
attr repetition 10
attr replication #10
attr resultdir results
attr runnumber 10
attr seedset 10

vector 3  BasicTopology.peer[1].bitTorrentApp.bitTorrentClient  DownloadComplete_Test:vector  ETV
attr source  BitTorrentClient_DownloadComplete_Test
attr title  "Descargas completas (prueba), vector"
vector 5  BasicTopology.peer[2].bitTorrentApp.bitTorrentClient  DownloadComplete_Test:vector  ETV
attr source  BitTorrentClient_DownloadComplete_Test
attr title  "Descargas completas (prueba), vector"
vector 7  BasicTopology.peer[3].bitTorrentApp.bitTorrentClient  DownloadComplete_Test:vector  ETV
attr source  BitTorrentClient_DownloadComplete_Test
attr title  "Descargas completas (prueba), vector"
vector 9  BasicTopology.peer[4].bitTorrentApp.bitTorrentClient  DownloadComplete_Test:vector  ETV
attr source  BitTorrentClient_DownloadComplete_Test
attr title  "Descargas completas (prueba), vector"
vector 11  BasicTopology.peer[5].bitTorrentApp.bitTorrentClient  DownloadComplete_Test:vector  ETV
attr source  BitTorrentClient_DownloadComplete_Test
attr title  "Descargas completas (prueba), vector"
vector 13  BasicTopology.peer[6].bitTorrentApp.bitTorrentClient  DownloadComplete_Test:vector  ETV
attr source  BitTorrentClient_DownloadComplete_Test
attr title  "Descargas completas (prueba), vector"
vector 15  BasicTopology.peer[7].bitTorrentApp.bitTorrentClient  DownloadComplete_Test:vector  ETV
attr source  BitTorrentClient_DownloadComplete_Test
attr title  "Descargas completas (prueba), vector"
vector 17  BasicTopology.peer[8].bitTorrentApp.bitTorrentClient  DownloadComplete_Test:vector  ETV
attr source  BitTorrentClient_DownloadComplete_Test
attr title  "Descargas completas (prueba), vector"
vector 19  BasicTopology.peer[9].bitTorrentApp.bitTorrentClient  DownloadComplete_Test:vector  ETV
attr source  BitTorrentClient_DownloadComplete_Test
attr title  "Descargas completas (prueba), vector"
vector 21  BasicTopology.peer[10].bitTorrentApp.bitTorrentClient  DownloadComplete_Test:vector  ETV
attr source  BitTorrentClient_DownloadComplete_Test
attr title  "Descargas completas (prueba), vector"
vector 23  BasicTopology.peer[11].bitTorrentApp.bitTorrentClient  DownloadComplete_Test:vector  ETV
attr source  BitTorrentClient_DownloadComplete_Test
attr title  "Descargas completas (prueba), vector"
vector 25  BasicTopology.peer[12].bitTorrentApp.bitTorrentClient  DownloadComplete_Test:vector  ETV
attr source  BitTorrentClient_DownloadComplete_Test
attr title  "Descargas completas (prueba), vector"
vector 27  BasicTopology.peer[13].bitTorrentApp.bitTorrentClient  DownloadComplete_Test:vector  ETV
attr source  BitTorrentClient_DownloadComplete_Test
attr title  "Descargas completas (prueba), vector"
vector 29  BasicTopology.peer[14].bitTorrentApp.bitTorrentClient  DownloadComplete_Test:vector  ETV
attr source  BitTorrentClient_DownloadComplete_Test
attr title  "Descargas completas (prueba), vector"
vector 31  BasicTopology.peer[15].bitTorrentApp.bitTorrentClient  DownloadComplete_Test:vector  ETV
attr source  BitTorrentClient_DownloadComplete_Test
attr title  "Descargas completas (prueba), vector"
vector 33  BasicTopology.peer[16].bitTorrentApp.bitTorrentClient  DownloadComplete_Test:vector  ETV
attr source  BitTorrentClient_DownloadComplete_Test
attr title  "Descargas completas (prueba), vector"
vector 35  BasicTopology.peer[17].bitTorrentApp.bitTorrentClient  DownloadComplete_Test:vector  ETV
attr source  BitTorrentClient_DownloadComplete_Test
attr title  "Descargas completas (prueba), vector"
vector 37  BasicTopology.peer[18].bitTorrentApp.bitTorrentClient  DownloadComplete_Test:vector  ETV
attr source  BitTorrentClient_DownloadComplete_Test
attr title  "Descargas completas (prueba), vector"
vector 39  BasicTopology.peer[19].bitTorrentApp.bitTorrentClient  DownloadComplete_Test:vector  ETV
attr source  BitTorrentClient_DownloadComplete_Test
attr title  "Descargas completas (prueba), vector"
vector 41  BasicTopology.peer[20].bitTorrentApp.bitTorrentClient  DownloadComplete_Test:vector  ETV
attr source  BitTorrentClient_DownloadComplete_Test
attr title  "Descargas completas (prueba), vector"
vector 43  BasicTopology.peer[21].bitTorrentApp.bitTorrentClient  DownloadComplete_Test:vector  ETV
attr source  BitTorrentClient_DownloadComplete_Test
attr title  "Descargas completas (prueba), vector"
vector 45  BasicTopology.peer[22].bitTorrentApp.bitTorrentClient  DownloadComplete_Test:vector  ETV
attr source  BitTorrentClient_DownloadComplete_Test
attr title  "Descargas completas (prueba), vector"
vector 47  BasicTopology.peer[23].bitTorrentApp.bitTorrentClient  DownloadComplete_Test:vector  ETV
attr source  BitTorrentClient_DownloadComplete_Test
attr title  "Descargas completas (prueba), vector"
vector 49  BasicTopology.peer[24].bitTorrentApp.bitTorrentClient  DownloadComplete_Test:vector  ETV
attr source  BitTorrentClient_DownloadComplete_Test
attr title  "Descargas completas (prueba), vector"
vector 833  BasicTopology.peer[0].bitTorrentApp.bitTorrentClient.contentManager_26  TotalBytesUploaded:vector  ETV
attr source  ContentManager_TotalBytesUploaded
attr title  "Total of Bytes Uploaded, vector"
attr unit  B
vector 840  BasicTopology.peer[1].bitTorrentApp.bitTorrentClient.contentManager_26  TotalBytesDownloaded:vector  ETV
attr source  ContentManager_TotalBytesDownloaded
attr title  "Total of Bytes Downloaded, vector"
attr unit  B
vector 936  BasicTopology.peer[13].bitTorrentApp.bitTorrentClient.contentManager_26  TotalBytesDownloaded:vector  ETV
attr source  ContentManager_TotalBytesDownloaded
attr title  "Total of Bytes Downloaded, vector"
attr unit  B
vector 1016  BasicTopology.peer[23].bitTorrentApp.bitTorrentClient.contentManager_26  TotalBytesDownloaded:vector  ETV
attr source  ContentManager_TotalBytesDownloaded
attr title  "Total of Bytes Downloaded, vector"
attr unit  B
vector 839  BasicTopology.peer[1].bitTorrentApp.bitTorrentClient.contentManager_26  PiecesDownloaded:vector  ETV
attr source  ContentManager_PieceDownloaded
attr title  "Pieces Downloaded, vector"
vector 841  BasicTopology.peer[1].bitTorrentApp.bitTorrentClient.contentManager_26  TotalBytesUploaded:vector  ETV
attr source  ContentManager_TotalBytesUploaded
attr title  "Total of Bytes Uploaded, vector"
attr unit  B
vector 928  BasicTopology.peer[12].bitTorrentApp.bitTorrentClient.contentManager_26  TotalBytesDownloaded:vector  ETV
attr source  ContentManager_TotalBytesDownloaded
attr title  "Total of Bytes Downloaded, vector"
attr unit  B
vector 920  BasicTopology.peer[11].bitTorrentApp.bitTorrentClient.contentManager_26  TotalBytesDownloaded:vector  ETV
attr source  ContentManager_TotalBytesDownloaded
attr title  "Total of Bytes Downloaded, vector"
attr unit  B
vector 984  BasicTopology.peer[19].bitTorrentApp.bitTorrentClient.contentManager_26  TotalBytesDownloaded:vector  ETV
attr source  ContentManager_TotalBytesDownloaded
attr title  "Total of Bytes Downloaded, vector"
attr unit  B
vector 1008  BasicTopology.peer[22].bitTorrentApp.bitTorrentClient.contentManager_26  TotalBytesDownloaded:vector  ETV
attr source  ContentManager_TotalBytesDownloaded
attr title  "Total of Bytes Downloaded, vector"
attr unit  B
vector 888  BasicTopology.peer[7].bitTorrentApp.bitTorrentClient.contentManager_26  TotalBytesDownloaded:vector  ETV
attr source  ContentManager_TotalBytesDownloaded
attr title  "Total of Bytes Downloaded, vector"
attr unit  B
vector 952  BasicTopology.peer[15].bitTorrentApp.bitTorrentClient.contentManager_26  TotalBytesDownloaded:vector  ETV
attr source  ContentManager_TotalBytesDownloaded
attr title  "Total of Bytes Downloaded, vector"
attr unit  B
vector 919  BasicTopology.peer[11].bitTorrentApp.bitTorrentClient.contentManager_26  PiecesDownloaded:vector  ETV
attr source  ContentManager_PieceDownloaded
attr title  "Pieces Downloaded, vector"
vector 921  BasicTopology.peer[11].bitTorrentApp.bitTorrentClient.contentManager_26  TotalBytesUploaded:vector  ETV
attr source  ContentManager_TotalBytesUploaded
attr title  "Total of Bytes Uploaded, vector"
attr unit  B
vector 1024  BasicTopology.peer[24].bitTorrentApp.bitTorrentClient.contentManager_26  TotalBytesDownloaded:vector  ETV
attr source  ContentManager_TotalBytesDownloaded
attr title  "Total of Bytes Downloaded, vector"
attr unit  B
vector 976  BasicTopology.peer[18].bitTorrentApp.bitTorrentClient.contentManager_26  TotalBytesDownloaded:vector  ETV
attr source  ContentManager_TotalBytesDownloaded
attr title  "Total of Bytes Downloaded, vector"
attr unit  B
vector 872  BasicTopology.peer[5].bitTorrentApp.bitTorrentClient.contentManager_26  TotalBytesDownloaded:vector  ETV
attr source  ContentManager_TotalBytesDownloaded
attr title  "Total of Bytes Downloaded, vector"
attr unit  B
vector 935  BasicTopology.peer[13].bitTorrentApp.bitTorrentClient.contentManager_26  PiecesDownloaded:vector  ETV
attr source  ContentManager_PieceDownloaded
attr title  "Pieces Downloaded, vector"
vector 912  BasicTopology.peer[10].bitTorrentApp.bitTorrentClient.contentManager_26  TotalBytesDownloaded:vector  ETV
attr source  ContentManager_TotalBytesDownloaded
attr title  "Total of Bytes Downloaded, vector"
attr unit  B
vector 864  BasicTopology.peer[4].bitTorrentApp.bitTorrentClient.contentManager_26  TotalBytesDownloaded:vector  ETV
attr source  ContentManager_TotalBytesDownloaded
attr title  "Total of Bytes Downloaded, vector"
attr unit  B
vector 896  BasicTopology.peer[8].bitTorrentApp.bitTorrentClient.contentManager_26  TotalBytesDownloaded:vector  ETV
attr source  ContentManager_TotalBytesDownloaded
attr title  "Total of Bytes Downloaded, vector"
attr unit  B
vector 937  BasicTopology.peer[13].bitTorrentApp.bitTorrentClient.contentManager_26  TotalBytesUploaded:vector  ETV
attr source  ContentManager_TotalBytesUploaded
attr title  "Total of Bytes Uploaded, vector"
attr unit  B
vector 992  BasicTopology.peer[20].bitTorrentApp.bitTorrentClient.contentManager_26  TotalBytesDownloaded:vector  ETV
attr source  ContentManager_TotalBytesDownloaded
attr title  "Total of Bytes Downloaded, vector"
attr unit  B
vector 880  BasicTopology.peer[6].bitTorrentApp.bitTorrentClient.contentManager_26  TotalBytesDownloaded:vector  ETV
attr source  ContentManager_TotalBytesDownloaded
attr title  "Total of Bytes Downloaded, vector"
attr unit  B
vector 856  BasicTopology.peer[3].bitTorrentApp.bitTorrentClient.contentManager_26  TotalBytesDownloaded:vector  ETV
attr source  ContentManager_TotalBytesDownloaded
attr title  "Total of Bytes Downloaded, vector"
attr unit  B
vector 960  BasicTopology.peer[16].bitTorrentApp.bitTorrentClient.contentManager_26  TotalBytesDownloaded:vector  ETV
attr source  ContentManager_TotalBytesDownloaded
attr title  "Total of Bytes Downloaded, vector"
attr unit  B
vector 848  BasicTopology.peer[2].bitTorrentApp.bitTorrentClient.contentManager_26  TotalBytesDownloaded:vector  ETV
attr source  ContentManager_TotalBytesDownloaded
attr title  "Total of Bytes Downloaded, vector"
attr unit  B
vector 944  BasicTopology.peer[14].bitTorrentApp.bitTorrentClient.contentManager_26  TotalBytesDownloaded:vector  ETV
attr source  ContentManager_TotalBytesDownloaded
attr title  "Total of Bytes Downloaded, vector"
attr unit  B
vector 1000  BasicTopology.peer[21].bitTorrentApp.bitTorrentClient.contentManager_26  TotalBytesDownloaded:vector  ETV
attr source  ContentManager_TotalBytesDownloaded
attr title  "Total of Bytes Downloaded, vector"
attr unit  B
vector 991  BasicTopology.peer[20].bitTorrentApp.bitTorrentClient.contentManager_26  PiecesDownloaded:vector  ETV
attr source  ContentManager_PieceDownloaded
attr title  "Pieces Downloaded, vector"
vector 968  BasicTopology.peer[17].bitTorrentApp.bitTorrentClient.contentManager_26  TotalBytesDownloaded:vector  ETV
attr source  ContentManager_TotalBytesDownloaded
attr title  "Total of Bytes Downloaded, vector"
attr unit  B
vector 1015  BasicTopology.peer[23].bitTorrentApp.bitTorrentClient.contentManager_26  PiecesDownloaded:vector  ETV
attr source  ContentManager_PieceDownloaded
attr title  "Pieces Downloaded, vector"
vector 1017  BasicTopology.peer[23].bitTorrentApp.bitTorrentClient.contentManager_26  TotalBytesUploaded:vector  ETV
attr source  ContentManager_TotalBytesUploaded
attr title  "Total of Bytes Uploaded, vector"
attr unit  B
vector 904  BasicTopology.peer[9].bitTorrentApp.bitTorrentClient.contentManager_26  TotalBytesDownloaded:vector  ETV
attr source  ContentManager_TotalBytesDownloaded
attr title  "Total of Bytes Downloaded, vector"
attr unit  B
vector 983  BasicTopology.peer[19].bitTorrentApp.bitTorrentClient.contentManager_26  PiecesDownloaded:vector  ETV
attr source  ContentManager_PieceDownloaded
attr title  "Pieces Downloaded, vector"
vector 911  BasicTopology.peer[10].bitTorrentApp.bitTorrentClient.contentManager_26  PiecesDownloaded:vector  ETV
attr source  ContentManager_PieceDownloaded
attr title  "Pieces Downloaded, vector"
vector 959  BasicTopology.peer[16].bitTorrentApp.bitTorrentClient.contentManager_26  PiecesDownloaded:vector  ETV
attr source  ContentManager_PieceDownloaded
attr title  "Pieces Downloaded, vector"
vector 863  BasicTopology.peer[4].bitTorrentApp.bitTorrentClient.contentManager_26  PiecesDownloaded:vector  ETV
attr source  ContentManager_PieceDownloaded
attr title  "Pieces Downloaded, vector"
vector 1007  BasicTopology.peer[22].bitTorrentApp.bitTorrentClient.contentManager_26  PiecesDownloaded:vector  ETV
attr source  ContentManager_PieceDownloaded
attr title  "Pieces Downloaded, vector"
vector 1009  BasicTopology.peer[22].bitTorrentApp.bitTorrentClient.contentManager_26  TotalBytesUploaded:vector  ETV
attr source  ContentManager_TotalBytesUploaded
attr title  "Total of Bytes Uploaded, vector"
attr unit  B
vector 855  BasicTopology.peer[3].bitTorrentApp.bitTorrentClient.contentManager_26  PiecesDownloaded:vector  ETV
attr source  ContentManager_PieceDownloaded
attr title  "Pieces Downloaded, vector"
vector 943  BasicTopology.peer[14].bitTorrentApp.bitTorrentClient.contentManager_26  PiecesDownloaded:vector  ETV
attr source  ContentManager_PieceDownloaded
attr title  "Pieces Downloaded, vector"
vector 993  BasicTopology.peer[20].bitTorrentApp.bitTorrentClient.contentManager_26  TotalBytesUploaded:vector  ETV
attr source  ContentManager_TotalBytesUploaded
attr title  "Total of Bytes Uploaded, vector"
attr unit  B
vector 999  BasicTopology.peer[21].bitTorrentApp.bitTorrentClient.contentManager_26  PiecesDownloaded:vector  ETV
attr source  ContentManager_PieceDownloaded
attr title  "Pieces Downloaded, vector"
vector 1001  BasicTopology.peer[21].bitTorrentApp.bitTorrentClient.contentManager_26  TotalBytesUploaded:vector  ETV
attr source  ContentManager_TotalBytesUploaded
attr title  "Total of Bytes Uploaded, vector"
attr unit  B
vector 903  BasicTopology.peer[9].bitTorrentApp.bitTorrentClient.contentManager_26  PiecesDownloaded:vector  ETV
attr source  ContentManager_PieceDownloaded
attr title  "Pieces Downloaded, vector"
vector 975  BasicTopology.peer[18].bitTorrentApp.bitTorrentClient.contentManager_26  PiecesDownloaded:vector  ETV
attr source  ContentManager_PieceDownloaded
attr title  "Pieces Downloaded, vector"
vector 871  BasicTopology.peer[5].bitTorrentApp.bitTorrentClient.contentManager_26  PiecesDownloaded:vector  ETV
attr source  ContentManager_PieceDownloaded
attr title  "Pieces Downloaded, vector"
vector 913  BasicTopology.peer[10].bitTorrentApp.bitTorrentClient.contentManager_26  TotalBytesUploaded:vector  ETV
attr source  ContentManager_TotalBytesUploaded
attr title  "Total of Bytes Uploaded, vector"
attr unit  B
vector 879  BasicTopology.peer[6].bitTorrentApp.bitTorrentClient.contentManager_26  PiecesDownloaded:vector  ETV
attr source  ContentManager_PieceDownloaded
attr title  "Pieces Downloaded, vector"
vector 951  BasicTopology.peer[15].bitTorrentApp.bitTorrentClient.contentManager_26  PiecesDownloaded:vector  ETV
attr source  ContentManager_PieceDownloaded
attr title  "Pieces Downloaded, vector"
vector 1023  BasicTopology.peer[24].bitTorrentApp.bitTorrentClient.contentManager_26  PiecesDownloaded:vector  ETV
attr source  ContentManager_PieceDownloaded
attr title  "Pieces Downloaded, vector"
vector 881  BasicTopology.peer[6].bitTorrentApp.bitTorrentClient.contentManager_26  TotalBytesUploaded:vector  ETV
attr source  ContentManager_TotalBytesUploaded
attr title  "Total of Bytes Uploaded, vector"
attr unit  B
vector 847  BasicTopology.peer[2].bitTorrentApp.bitTorrentClient.contentManager_26  PiecesDownloaded:vector  ETV
attr source  ContentManager_PieceDownloaded
attr title  "Pieces Downloaded, vector"
vector 927  BasicTopology.peer[12].bitTorrentApp.bitTorrentClient.contentManager_26  PiecesDownloaded:vector  ETV
attr source  ContentManager_PieceDownloaded
attr title  "Pieces Downloaded, vector"
vector 967  BasicTopology.peer[17].bitTorrentApp.bitTorrentClient.contentManager_26  PiecesDownloaded:vector  ETV
attr source  ContentManager_PieceDownloaded
attr title  "Pieces Downloaded, vector"
vector 887  BasicTopology.peer[7].bitTorrentApp.bitTorrentClient.contentManager_26  PiecesDownloaded:vector  ETV
attr source  ContentManager_PieceDownloaded
attr title  "Pieces Downloaded, vector"
vector 953  BasicTopology.peer[15].bitTorrentApp.bitTorrentClient.contentManager_26  TotalBytesUploaded:vector  ETV
attr source  ContentManager_TotalBytesUploaded
attr title  "Total of Bytes Uploaded, vector"
attr unit  B
vector 895  BasicTopology.peer[8].bitTorrentApp.bitTorrentClient.contentManager_26  PiecesDownloaded:vector  ETV
attr source  ContentManager_PieceDownloaded
attr title  "Pieces Downloaded, vector"
vector 873  BasicTopology.peer[5].bitTorrentApp.bitTorrentClient.contentManager_26  TotalBytesUploaded:vector  ETV
attr source  ContentManager_TotalBytesUploaded
attr title  "Total of Bytes Uploaded, vector"
attr unit  B
vector 865  BasicTopology.peer[4].bitTorrentApp.bitTorrentClient.contentManager_26  TotalBytesUploaded:vector  ETV
attr source  ContentManager_TotalBytesUploaded
attr title  "Total of Bytes Uploaded, vector"
attr unit  B
vector 889  BasicTopology.peer[7].bitTorrentApp.bitTorrentClient.contentManager_26  TotalBytesUploaded:vector  ETV
attr source  ContentManager_TotalBytesUploaded
attr title  "Total of Bytes Uploaded, vector"
attr unit  B
vector 857  BasicTopology.peer[3].bitTorrentApp.bitTorrentClient.contentManager_26  TotalBytesUploaded:vector  ETV
attr source  ContentManager_TotalBytesUploaded
attr title  "Total of Bytes Uploaded, vector"
attr unit  B
vector 897  BasicTopology.peer[8].bitTorrentApp.bitTorrentClient.contentManager_26  TotalBytesUploaded:vector  ETV
attr source  ContentManager_TotalBytesUploaded
attr title  "Total of Bytes Uploaded, vector"
attr unit  B
vector 977  BasicTopology.peer[18].bitTorrentApp.bitTorrentClient.contentManager_26  TotalBytesUploaded:vector  ETV
attr source  ContentManager_TotalBytesUploaded
attr title  "Total of Bytes Uploaded, vector"
attr unit  B
vector 961  BasicTopology.peer[16].bitTorrentApp.bitTorrentClient.contentManager_26  TotalBytesUploaded:vector  ETV
attr source  ContentManager_TotalBytesUploaded
attr title  "Total of Bytes Uploaded, vector"
attr unit  B
vector 945  BasicTopology.peer[14].bitTorrentApp.bitTorrentClient.contentManager_26  TotalBytesUploaded:vector  ETV
attr source  ContentManager_TotalBytesUploaded
attr title  "Total of Bytes Uploaded, vector"
attr unit  B
3	85	36001	36001
3	66562664	36120.74815488824	36120.748154888
5	86	36001	36001
5	61352076	36110.115151356654	36110.115151357
7	87	36001	36001
7	73813281	36134.372278760883	36134.372278761
9	88	36001	36001
9	67141019	36121.737028612559	36121.737028613
11	89	36001	36001
11	86669824	36165.927370538021	36165.927370538
13	90	36001	36001
13	80324874	36148.305222818135	36148.305222818
15	91	36001	36001
15	86506968	36165.411359040215	36165.41135904
17	92	36001	36001
17	82556722	36153.697179960918	36153.697179961
19	93	36001	36001
19	86062712	36162.993806057843	36162.993806058
21	94	36001	36001
21	78512314	36143.994495885475	36143.994495885
23	95	36001	36001
23	36440980	36066.035644035464	36066.035644035
25	96	36001	36001
25	87851093	36304.336426285007	36304.336426285
27	97	36001	36001
27	79189932	36146.038589261964	36146.038589262
29	98	36001	36001
29	81111827	36150.509006429265	36150.509006429
31	99	36001	36001
31	74851911	36136.330525433923	36136.330525434
33	100	36001	36001
33	74460835	36135.666415224889	36135.666415225
35	101	36001	36001
35	85356874	36160.282782534876	36160.282782535
37	102	36001	36001
37	78805738	36145.121276566803	36145.121276567
39	103	36001	36001
39	83396303	36155.318142905122	36155.318142905
41	104	36001	36001
41	65070208	36117.865547952318	36117.865547952
43	105	36001	36001
43	67088460	36121.621166153462	36121.621166153
45	106	36001	36001
45	87413903	36302.297179743858	36302.297179744
47	107	36001	36001
47	77093875	36140.651109070355	36140.65110907
49	108	36001	36001
49	67937776	36123.297197097653	36123.297197098
833	176980	36001.191062723745	32768
833	177099	36001.191214629143	65536
833	177217	36001.19136190299	98304
833	177740	36001.192234045421	131072
833	178828	36001.193584078206	163840
833	180652	36001.196803751405	196608
833	188992	36001.207647525234	229376
833	191151	36001.233198906703	262144
833	191153	36001.233612324944	294912
833	191155	36001.236600116766	327680
833	400297	36002.177496229401	360448
833	401531	36002.182494665711	393216
833	406266	36002.198845012947	425984
833	406930	36002.201707805558	458752
833	411250	36002.218711734718	491520
833	412087	36002.221372086193	524288
833	412262	36002.222085585849	557056
833	412579	36002.223060823487	589824
833	412725	36002.22357188244	622592
833	413084	36002.232664414658	655360
833	421272	36002.423857330613	688128
833	435058	36002.469227580493	720896
833	530107	36002.577160856045	753664
833	536875	36002.585134337105	786432
833	537976	36002.586644095944	819200
833	552821	36002.613287498072	851968
833	557234	36002.62355453915	884736
833	557422	36002.6241479593	917504
833	563041	36002.641373049923	950272
833	563949	36002.642816246774	983040
833	564568	36002.643508696138	1015808
833	566606	36002.654765208483	1048576
833	643200	36003.537699982357	1081344
833	657174	36003.583028129294	1114112
833	669542	36003.623137632541	1146880
833	684408	36003.668244996009	1179648
833	699922	36003.717583511909	1212416
833	817888	36004.101368103507	1245184
833	818115	36004.10155553194	1277952
833	821413	36004.105641418351	1310720
833	825053	36004.110180784446	1343488
833	827757	36004.113458639128	1376256
833	827942	36004.113916050196	1409024
833	840967	36004.12925599938	1441792
833	854646	36004.142926920442	1474560
833	855487	36004.143677809263	1507328
833	869193	36004.156415908024	1540096
833	913651	36004.219040116555	1572864
833	924406	36004.236785316221	1605632
833	924511	36004.236927509386	1638400
833	924897	36004.237542634519	1671168
833	925094	36004.237808937487	1703936
833	928170	36004.242702195174	1736704
833	931643	36004.248379733222	1769472
833	931886	36004.248989114607	1802240
833	932026	36004.249610208155	1835008
833	932138	36004.249736161537	1867776
833	932268	36004.250084823103	1900544
833	940632	36004.263222973588	1933312
833	954225	36004.285487120439	1966080
833	954905	36004.286386069772	1998848
833	956160	36004.287661826164	2031616
833	964018	36004.305860204957	2064384
833	967872	36004.317629963427	2097152
833	968039	36004.317985088441	2129920
833	971547	36004.329788646877	2162688
833	972292	36004.331568847212	2195456
833	987100	36004.373467439593	2228224
833	1015657	36004.459874312051	2260992
833	1090239	36004.569795227417	2293760
833	1091617	36004.57126407981	2326528
833	1092707	36004.572171238739	2359296
833	1106280	36004.590431507316	2392064
833	1115808	36004.604884039279	2424832
833	1117047	36004.606678458583	2457600
833	1118741	36004.611464012205	2490368
833	1119782	36004.614595752662	2523136
833	1125020	36004.629603227696	2555904
833	1129570	36004.63575103294	2588672
833	1172305	36004.719785033185	2621440
833	1239055	36004.8586740187	2654208
833	1344693	36005.064167583203	2686976
833	1366976	36005.135400731107	2719744
833	1392446	36005.561043299708	2752512
833	1414811	36005.615290509985	2785280
833	1511986	36005.810235243496	2818048
833	1560665	36005.883570760777	2850816
833	1609513	36005.988929671049	2883584
833	1612861	36005.99542745689	2916352
833	1622666	36006.009042804715	2949120
833	1730705	36006.322420466165	2981888
833	1797170	36006.457339687941	3014656
833	1893367	36006.684668399223	3047424
833	1910149	36006.733664923591	3080192
833	2075892	36007.136697632011	3112960
833	2151871	36007.283528612141	3145728
833	2161829	36007.302102308265	3178496
833	3187016	36009.574642337376	3211264
833	3227091	36009.658498563476	3244032
833	3341618	36009.912323650199	3276800
833	3491063	36010.117910670992	3309568
833	3545600	36010.194840616867	3342336
833	3860311	36010.701583680543	3375104
833	3876883	36010.725887088601	3407872
833	3959054	36010.86728495349	3440640
833	3996286	36010.927519643361	3473408
833	4316144	36011.509500081808	3506176
833	4640030	36012.118733007551	3538944
833	4650350	36012.139784813444	3571712
833	4755030	36012.390756444362	3604480
833	4850091	36012.589930585878	3637248
833	4915446	36012.685917160455	3670016
833	5268047	36013.246093995975	3702784
833	5274796	36013.257541741671	3735552
833	5302624	36013.305562694347	3768320
833	5736937	36014.241704345344	3801088
833	5816442	36014.364756747778	3833856
833	5866659	36014.429927395834	3866624
833	6476042	36015.494222733336	3899392
833	6530660	36015.585203685896	3932160
833	6581993	36015.671268543859	3964928
833	6645781	36015.762455447935	3997696
833	6674384	36015.806983158358	4030464
833	6695141	36015.839877564104	4063232
833	6741584	36015.91509077622	4096000
833	6799721	36016.029249870491	4128768
833	7049851	36016.492408092911	4161536
833	7341812	36017.013137980386	4194304
833	7417905	36017.120226787721	4227072
833	7537324	36017.274084128732	4259840
833	7726478	36017.654296716711	4292608
833	8363481	36018.823061360579	4325376
833	8680310	36019.493423301111	4358144
833	8938874	36020.044314801056	4390912
833	9013328	36020.204833070346	4423680
833	9288644	36020.743463409208	4456448
833	9361812	36020.894085480377	4489216
833	9422554	36021.018897178553	4521984
833	10058047	36022.174511524028	4554752
833	10731960	36023.452383569694	4587520
833	10749708	36023.505497366771	4620288
833	11240946	36024.245808553169	4653056
833	12038095	36025.598676830888	4685824
833	12103692	36025.728673733298	4718592
833	13210442	36027.632063080345	4751360
833	13284191	36027.746462025506	4784128
833	13349896	36027.847134875037	4816896
833	13432083	36027.9774671804	4849664
833	13485769	36028.066012603474	4882432
833	13535102	36028.17122896303	4915200
833	14079260	36029.289491058793	4947968
833	14107929	36029.355927903017	4980736
833	14148235	36029.422426358081	5013504
833	15769129	36032.372063120721	5046272
833	16035820	36032.767532423023	5079040
833	16535581	36033.557225681095	5111808
833	16545257	36033.573196934118	5144576
833	16546325	36033.575758202616	5177344
833	16553348	36033.589158534855	5210112
833	16555601	36033.592602681817	5242880
833	16556159	36033.593243480035	5275648
833	16560533	36033.601753753144	5308416
833	16568447	36033.614889369187	5341184
833	16569989	36033.617179219754	5373952
833	16600766	36033.658244077482	5406720
833	16623394	36033.690120456321	5439488
833	16801947	36033.956051998503	5472256
833	17248351	36034.664226289377	5505024
833	17251911	36034.670626720234	5537792
833	17335976	36034.792139098413	5570560
833	17398524	36034.881312873666	5603328
833	17443246	36034.93825963915	5636096
833	17521841	36035.045867129344	5668864
833	17546682	36035.078129248593	5701632
833	17602709	36035.16046381889	5734400
833	18115204	36036.155278881814	5767168
833	18165561	36036.23728118839	5799936
833	18187401	36036.26931759616	5832704
833	18266923	36036.408988004823	5865472
833	18301440	36036.464226474742	5898240
833	18353934	36036.551106197461	5931008
833	18533194	36036.922698774952	5963776
833	18741133	36037.371874095244	5996544
833	18761684	36037.401856583316	6029312
833	19608168	36038.748783982095	6062080
833	20064373	36039.531874646159	6094848
833	20126709	36039.628452950206	6127616
833	20915962	36040.85231859372	6160384
833	20977926	36040.953975949149	6193152
833	21003967	36040.992143488054	6225920
833	21052942	36041.06931020045	6258688
833	21076762	36041.112826687857	6291456
833	21098038	36041.166815802915	6324224
833	21780046	36042.288792664411	6356992
833	22464203	36043.364143119898	6389760
833	22478976	36043.40401131224	6422528
833	22501112	36043.468258288671	6455296
833	22543058	36043.540191648403	6488064
833	22605413	36043.651612449514	6520832
833	22663411	36043.735545073987	6553600
833	22741124	36043.858648076843	6586368
833	23248550	36044.713982136912	6619136
833	23297386	36044.827663886486	6651904
833	23365712	36044.91700359217	6684672
833	23429656	36045.008401291341	6717440
833	24497265	36046.732093722104	6750208
833	24565662	36046.843695680048	6782976
833	24600089	36046.905227487473	6815744
833	25648814	36048.489038317158	6848512
833	25649127	36048.489642648874	6881280
833	25653085	36048.499873081129	6914048
833	25653267	36048.50110722253	6946816
833	25653376	36048.501341204111	6979584
833	25653741	36048.502610754315	7012352
833	25653743	36048.502612857544	7045120
833	25661919	36048.521074725417	7077888
833	25661921	36048.52109585427	7110656
833	25661972	36048.521166653931	7143424
833	26068026	36049.142072069866	7176192
833	26186548	36049.323254424036	7208960
833	27221717	36051.067554290989	7241728
833	27340768	36051.23008669812	7274496
833	27455297	36051.376284123879	7307264
833	27534998	36051.47827222168	7340032
833	27581010	36051.535582709627	7372800