version 2
run Test-8-20200424-20:17:45-7733
attr configname Test
attr datetime 20200424-20:17:45
attr experiment "\"Simulation Test\""
attr inifile BasicConfig.ini
attr iterationvars ""
attr iterationvars2 $repetition=8
attr measurement "\"Peers: $peers, Rate: $rate\""
attr network BasicTopology
attr processid 7733
attr repetition 8
attr replication #8
attr resultdir results
attr runnumber 8
attr seedset 8

vector 3  BasicTopology.peer[1].bitTorrentApp.bitTorrentClient  DownloadComplete_Test:vector  ETV
attr source  BitTorrentClient_DownloadComplete_Test
attr title  "Descargas completas (prueba), vector"
vector 5  BasicTopology.peer[2].bitTorrentApp.bitTorrentClient  DownloadComplete_Test:vector  ETV
attr source  BitTorrentClient_DownloadComplete_Test
attr title  "Descargas completas (prueba), vector"
vector 7  BasicTopology.peer[3].bitTorrentApp.bitTorrentClient  DownloadComplete_Test:vector  ETV
attr source  BitTorrentClient_DownloadComplete_Test
attr title  "Descargas completas (prueba), vector"
vector 9  BasicTopology.peer[4].bitTorrentApp.bitTorrentClient  DownloadComplete_Test:vector  ETV
attr source  BitTorrentClient_DownloadComplete_Test
attr title  "Descargas completas (prueba), vector"
vector 11  BasicTopology.peer[5].bitTorrentApp.bitTorrentClient  DownloadComplete_Test:vector  ETV
attr source  BitTorrentClient_DownloadComplete_Test
attr title  "Descargas completas (prueba), vector"
vector 13  BasicTopology.peer[6].bitTorrentApp.bitTorrentClient  DownloadComplete_Test:vector  ETV
attr source  BitTorrentClient_DownloadComplete_Test
attr title  "Descargas completas (prueba), vector"
vector 15  BasicTopology.peer[7].bitTorrentApp.bitTorrentClient  DownloadComplete_Test:vector  ETV
attr source  BitTorrentClient_DownloadComplete_Test
attr title  "Descargas completas (prueba), vector"
vector 17  BasicTopology.peer[8].bitTorrentApp.bitTorrentClient  DownloadComplete_Test:vector  ETV
attr source  BitTorrentClient_DownloadComplete_Test
attr title  "Descargas completas (prueba), vector"
vector 19  BasicTopology.peer[9].bitTorrentApp.bitTorrentClient  DownloadComplete_Test:vector  ETV
attr source  BitTorrentClient_DownloadComplete_Test
attr title  "Descargas completas (prueba), vector"
vector 21  BasicTopology.peer[10].bitTorrentApp.bitTorrentClient  DownloadComplete_Test:vector  ETV
attr source  BitTorrentClient_DownloadComplete_Test
attr title  "Descargas completas (prueba), vector"
vector 23  BasicTopology.peer[11].bitTorrentApp.bitTorrentClient  DownloadComplete_Test:vector  ETV
attr source  BitTorrentClient_DownloadComplete_Test
attr title  "Descargas completas (prueba), vector"
vector 25  BasicTopology.peer[12].bitTorrentApp.bitTorrentClient  DownloadComplete_Test:vector  ETV
attr source  BitTorrentClient_DownloadComplete_Test
attr title  "Descargas completas (prueba), vector"
vector 27  BasicTopology.peer[13].bitTorrentApp.bitTorrentClient  DownloadComplete_Test:vector  ETV
attr source  BitTorrentClient_DownloadComplete_Test
attr title  "Descargas completas (prueba), vector"
vector 29  BasicTopology.peer[14].bitTorrentApp.bitTorrentClient  DownloadComplete_Test:vector  ETV
attr source  BitTorrentClient_DownloadComplete_Test
attr title  "Descargas completas (prueba), vector"
vector 31  BasicTopology.peer[15].bitTorrentApp.bitTorrentClient  DownloadComplete_Test:vector  ETV
attr source  BitTorrentClient_DownloadComplete_Test
attr title  "Descargas completas (prueba), vector"
vector 33  BasicTopology.peer[16].bitTorrentApp.bitTorrentClient  DownloadComplete_Test:vector  ETV
attr source  BitTorrentClient_DownloadComplete_Test
attr title  "Descargas completas (prueba), vector"
vector 35  BasicTopology.peer[17].bitTorrentApp.bitTorrentClient  DownloadComplete_Test:vector  ETV
attr source  BitTorrentClient_DownloadComplete_Test
attr title  "Descargas completas (prueba), vector"
vector 37  BasicTopology.peer[18].bitTorrentApp.bitTorrentClient  DownloadComplete_Test:vector  ETV
attr source  BitTorrentClient_DownloadComplete_Test
attr title  "Descargas completas (prueba), vector"
vector 39  BasicTopology.peer[19].bitTorrentApp.bitTorrentClient  DownloadComplete_Test:vector  ETV
attr source  BitTorrentClient_DownloadComplete_Test
attr title  "Descargas completas (prueba), vector"
vector 41  BasicTopology.peer[20].bitTorrentApp.bitTorrentClient  DownloadComplete_Test:vector  ETV
attr source  BitTorrentClient_DownloadComplete_Test
attr title  "Descargas completas (prueba), vector"
vector 43  BasicTopology.peer[21].bitTorrentApp.bitTorrentClient  DownloadComplete_Test:vector  ETV
attr source  BitTorrentClient_DownloadComplete_Test
attr title  "Descargas completas (prueba), vector"
vector 45  BasicTopology.peer[22].bitTorrentApp.bitTorrentClient  DownloadComplete_Test:vector  ETV
attr source  BitTorrentClient_DownloadComplete_Test
attr title  "Descargas completas (prueba), vector"
vector 47  BasicTopology.peer[23].bitTorrentApp.bitTorrentClient  DownloadComplete_Test:vector  ETV
attr source  BitTorrentClient_DownloadComplete_Test
attr title  "Descargas completas (prueba), vector"
vector 49  BasicTopology.peer[24].bitTorrentApp.bitTorrentClient  DownloadComplete_Test:vector  ETV
attr source  BitTorrentClient_DownloadComplete_Test
attr title  "Descargas completas (prueba), vector"
vector 833  BasicTopology.peer[0].bitTorrentApp.bitTorrentClient.contentManager_26  TotalBytesUploaded:vector  ETV
attr source  ContentManager_TotalBytesUploaded
attr title  "Total of Bytes Uploaded, vector"
attr unit  B
vector 912  BasicTopology.peer[10].bitTorrentApp.bitTorrentClient.contentManager_26  TotalBytesDownloaded:vector  ETV
attr source  ContentManager_TotalBytesDownloaded
attr title  "Total of Bytes Downloaded, vector"
attr unit  B
vector 992  BasicTopology.peer[20].bitTorrentApp.bitTorrentClient.contentManager_26  TotalBytesDownloaded:vector  ETV
attr source  ContentManager_TotalBytesDownloaded
attr title  "Total of Bytes Downloaded, vector"
attr unit  B
vector 920  BasicTopology.peer[11].bitTorrentApp.bitTorrentClient.contentManager_26  TotalBytesDownloaded:vector  ETV
attr source  ContentManager_TotalBytesDownloaded
attr title  "Total of Bytes Downloaded, vector"
attr unit  B
vector 936  BasicTopology.peer[13].bitTorrentApp.bitTorrentClient.contentManager_26  TotalBytesDownloaded:vector  ETV
attr source  ContentManager_TotalBytesDownloaded
attr title  "Total of Bytes Downloaded, vector"
attr unit  B
vector 880  BasicTopology.peer[6].bitTorrentApp.bitTorrentClient.contentManager_26  TotalBytesDownloaded:vector  ETV
attr source  ContentManager_TotalBytesDownloaded
attr title  "Total of Bytes Downloaded, vector"
attr unit  B
vector 919  BasicTopology.peer[11].bitTorrentApp.bitTorrentClient.contentManager_26  PiecesDownloaded:vector  ETV
attr source  ContentManager_PieceDownloaded
attr title  "Pieces Downloaded, vector"
vector 921  BasicTopology.peer[11].bitTorrentApp.bitTorrentClient.contentManager_26  TotalBytesUploaded:vector  ETV
attr source  ContentManager_TotalBytesUploaded
attr title  "Total of Bytes Uploaded, vector"
attr unit  B
vector 848  BasicTopology.peer[2].bitTorrentApp.bitTorrentClient.contentManager_26  TotalBytesDownloaded:vector  ETV
attr source  ContentManager_TotalBytesDownloaded
attr title  "Total of Bytes Downloaded, vector"
attr unit  B
vector 991  BasicTopology.peer[20].bitTorrentApp.bitTorrentClient.contentManager_26  PiecesDownloaded:vector  ETV
attr source  ContentManager_PieceDownloaded
attr title  "Pieces Downloaded, vector"
vector 993  BasicTopology.peer[20].bitTorrentApp.bitTorrentClient.contentManager_26  TotalBytesUploaded:vector  ETV
attr source  ContentManager_TotalBytesUploaded
attr title  "Total of Bytes Uploaded, vector"
attr unit  B
vector 840  BasicTopology.peer[1].bitTorrentApp.bitTorrentClient.contentManager_26  TotalBytesDownloaded:vector  ETV
attr source  ContentManager_TotalBytesDownloaded
attr title  "Total of Bytes Downloaded, vector"
attr unit  B
vector 976  BasicTopology.peer[18].bitTorrentApp.bitTorrentClient.contentManager_26  TotalBytesDownloaded:vector  ETV
attr source  ContentManager_TotalBytesDownloaded
attr title  "Total of Bytes Downloaded, vector"
attr unit  B
vector 872  BasicTopology.peer[5].bitTorrentApp.bitTorrentClient.contentManager_26  TotalBytesDownloaded:vector  ETV
attr source  ContentManager_TotalBytesDownloaded
attr title  "Total of Bytes Downloaded, vector"
attr unit  B
vector 911  BasicTopology.peer[10].bitTorrentApp.bitTorrentClient.contentManager_26  PiecesDownloaded:vector  ETV
attr source  ContentManager_PieceDownloaded
attr title  "Pieces Downloaded, vector"
vector 913  BasicTopology.peer[10].bitTorrentApp.bitTorrentClient.contentManager_26  TotalBytesUploaded:vector  ETV
attr source  ContentManager_TotalBytesUploaded
attr title  "Total of Bytes Uploaded, vector"
attr unit  B
vector 944  BasicTopology.peer[14].bitTorrentApp.bitTorrentClient.contentManager_26  TotalBytesDownloaded:vector  ETV
attr source  ContentManager_TotalBytesDownloaded
attr title  "Total of Bytes Downloaded, vector"
attr unit  B
vector 864  BasicTopology.peer[4].bitTorrentApp.bitTorrentClient.contentManager_26  TotalBytesDownloaded:vector  ETV
attr source  ContentManager_TotalBytesDownloaded
attr title  "Total of Bytes Downloaded, vector"
attr unit  B
vector 888  BasicTopology.peer[7].bitTorrentApp.bitTorrentClient.contentManager_26  TotalBytesDownloaded:vector  ETV
attr source  ContentManager_TotalBytesDownloaded
attr title  "Total of Bytes Downloaded, vector"
attr unit  B
vector 952  BasicTopology.peer[15].bitTorrentApp.bitTorrentClient.contentManager_26  TotalBytesDownloaded:vector  ETV
attr source  ContentManager_TotalBytesDownloaded
attr title  "Total of Bytes Downloaded, vector"
attr unit  B
vector 856  BasicTopology.peer[3].bitTorrentApp.bitTorrentClient.contentManager_26  TotalBytesDownloaded:vector  ETV
attr source  ContentManager_TotalBytesDownloaded
attr title  "Total of Bytes Downloaded, vector"
attr unit  B
vector 984  BasicTopology.peer[19].bitTorrentApp.bitTorrentClient.contentManager_26  TotalBytesDownloaded:vector  ETV
attr source  ContentManager_TotalBytesDownloaded
attr title  "Total of Bytes Downloaded, vector"
attr unit  B
vector 839  BasicTopology.peer[1].bitTorrentApp.bitTorrentClient.contentManager_26  PiecesDownloaded:vector  ETV
attr source  ContentManager_PieceDownloaded
attr title  "Pieces Downloaded, vector"
vector 841  BasicTopology.peer[1].bitTorrentApp.bitTorrentClient.contentManager_26  TotalBytesUploaded:vector  ETV
attr source  ContentManager_TotalBytesUploaded
attr title  "Total of Bytes Uploaded, vector"
attr unit  B
vector 904  BasicTopology.peer[9].bitTorrentApp.bitTorrentClient.contentManager_26  TotalBytesDownloaded:vector  ETV
attr source  ContentManager_TotalBytesDownloaded
attr title  "Total of Bytes Downloaded, vector"
attr unit  B
vector 1024  BasicTopology.peer[24].bitTorrentApp.bitTorrentClient.contentManager_26  TotalBytesDownloaded:vector  ETV
attr source  ContentManager_TotalBytesDownloaded
attr title  "Total of Bytes Downloaded, vector"
attr unit  B
vector 1016  BasicTopology.peer[23].bitTorrentApp.bitTorrentClient.contentManager_26  TotalBytesDownloaded:vector  ETV
attr source  ContentManager_TotalBytesDownloaded
attr title  "Total of Bytes Downloaded, vector"
attr unit  B
vector 855  BasicTopology.peer[3].bitTorrentApp.bitTorrentClient.contentManager_26  PiecesDownloaded:vector  ETV
attr source  ContentManager_PieceDownloaded
attr title  "Pieces Downloaded, vector"
vector 847  BasicTopology.peer[2].bitTorrentApp.bitTorrentClient.contentManager_26  PiecesDownloaded:vector  ETV
attr source  ContentManager_PieceDownloaded
attr title  "Pieces Downloaded, vector"
vector 849  BasicTopology.peer[2].bitTorrentApp.bitTorrentClient.contentManager_26  TotalBytesUploaded:vector  ETV
attr source  ContentManager_TotalBytesUploaded
attr title  "Total of Bytes Uploaded, vector"
attr unit  B
vector 863  BasicTopology.peer[4].bitTorrentApp.bitTorrentClient.contentManager_26  PiecesDownloaded:vector  ETV
attr source  ContentManager_PieceDownloaded
attr title  "Pieces Downloaded, vector"
vector 935  BasicTopology.peer[13].bitTorrentApp.bitTorrentClient.contentManager_26  PiecesDownloaded:vector  ETV
attr source  ContentManager_PieceDownloaded
attr title  "Pieces Downloaded, vector"
vector 960  BasicTopology.peer[16].bitTorrentApp.bitTorrentClient.contentManager_26  TotalBytesDownloaded:vector  ETV
attr source  ContentManager_TotalBytesDownloaded
attr title  "Total of Bytes Downloaded, vector"
attr unit  B
vector 1000  BasicTopology.peer[21].bitTorrentApp.bitTorrentClient.contentManager_26  TotalBytesDownloaded:vector  ETV
attr source  ContentManager_TotalBytesDownloaded
attr title  "Total of Bytes Downloaded, vector"
attr unit  B
vector 896  BasicTopology.peer[8].bitTorrentApp.bitTorrentClient.contentManager_26  TotalBytesDownloaded:vector  ETV
attr source  ContentManager_TotalBytesDownloaded
attr title  "Total of Bytes Downloaded, vector"
attr unit  B
vector 865  BasicTopology.peer[4].bitTorrentApp.bitTorrentClient.contentManager_26  TotalBytesUploaded:vector  ETV
attr source  ContentManager_TotalBytesUploaded
attr title  "Total of Bytes Uploaded, vector"
attr unit  B
vector 999  BasicTopology.peer[21].bitTorrentApp.bitTorrentClient.contentManager_26  PiecesDownloaded:vector  ETV
attr source  ContentManager_PieceDownloaded
attr title  "Pieces Downloaded, vector"
vector 951  BasicTopology.peer[15].bitTorrentApp.bitTorrentClient.contentManager_26  PiecesDownloaded:vector  ETV
attr source  ContentManager_PieceDownloaded
attr title  "Pieces Downloaded, vector"
vector 871  BasicTopology.peer[5].bitTorrentApp.bitTorrentClient.contentManager_26  PiecesDownloaded:vector  ETV
attr source  ContentManager_PieceDownloaded
attr title  "Pieces Downloaded, vector"
vector 1008  BasicTopology.peer[22].bitTorrentApp.bitTorrentClient.contentManager_26  TotalBytesDownloaded:vector  ETV
attr source  ContentManager_TotalBytesDownloaded
attr title  "Total of Bytes Downloaded, vector"
attr unit  B
vector 943  BasicTopology.peer[14].bitTorrentApp.bitTorrentClient.contentManager_26  PiecesDownloaded:vector  ETV
attr source  ContentManager_PieceDownloaded
attr title  "Pieces Downloaded, vector"
vector 928  BasicTopology.peer[12].bitTorrentApp.bitTorrentClient.contentManager_26  TotalBytesDownloaded:vector  ETV
attr source  ContentManager_TotalBytesDownloaded
attr title  "Total of Bytes Downloaded, vector"
attr unit  B
vector 968  BasicTopology.peer[17].bitTorrentApp.bitTorrentClient.contentManager_26  TotalBytesDownloaded:vector  ETV
attr source  ContentManager_TotalBytesDownloaded
attr title  "Total of Bytes Downloaded, vector"
attr unit  B
vector 959  BasicTopology.peer[16].bitTorrentApp.bitTorrentClient.contentManager_26  PiecesDownloaded:vector  ETV
attr source  ContentManager_PieceDownloaded
attr title  "Pieces Downloaded, vector"
vector 1015  BasicTopology.peer[23].bitTorrentApp.bitTorrentClient.contentManager_26  PiecesDownloaded:vector  ETV
attr source  ContentManager_PieceDownloaded
attr title  "Pieces Downloaded, vector"
vector 873  BasicTopology.peer[5].bitTorrentApp.bitTorrentClient.contentManager_26  TotalBytesUploaded:vector  ETV
attr source  ContentManager_TotalBytesUploaded
attr title  "Total of Bytes Uploaded, vector"
attr unit  B
vector 983  BasicTopology.peer[19].bitTorrentApp.bitTorrentClient.contentManager_26  PiecesDownloaded:vector  ETV
attr source  ContentManager_PieceDownloaded
attr title  "Pieces Downloaded, vector"
vector 903  BasicTopology.peer[9].bitTorrentApp.bitTorrentClient.contentManager_26  PiecesDownloaded:vector  ETV
attr source  ContentManager_PieceDownloaded
attr title  "Pieces Downloaded, vector"
vector 1023  BasicTopology.peer[24].bitTorrentApp.bitTorrentClient.contentManager_26  PiecesDownloaded:vector  ETV
attr source  ContentManager_PieceDownloaded
attr title  "Pieces Downloaded, vector"
vector 879  BasicTopology.peer[6].bitTorrentApp.bitTorrentClient.contentManager_26  PiecesDownloaded:vector  ETV
attr source  ContentManager_PieceDownloaded
attr title  "Pieces Downloaded, vector"
vector 1007  BasicTopology.peer[22].bitTorrentApp.bitTorrentClient.contentManager_26  PiecesDownloaded:vector  ETV
attr source  ContentManager_PieceDownloaded
attr title  "Pieces Downloaded, vector"
vector 967  BasicTopology.peer[17].bitTorrentApp.bitTorrentClient.contentManager_26  PiecesDownloaded:vector  ETV
attr source  ContentManager_PieceDownloaded
attr title  "Pieces Downloaded, vector"
vector 969  BasicTopology.peer[17].bitTorrentApp.bitTorrentClient.contentManager_26  TotalBytesUploaded:vector  ETV
attr source  ContentManager_TotalBytesUploaded
attr title  "Total of Bytes Uploaded, vector"
attr unit  B
vector 857  BasicTopology.peer[3].bitTorrentApp.bitTorrentClient.contentManager_26  TotalBytesUploaded:vector  ETV
attr source  ContentManager_TotalBytesUploaded
attr title  "Total of Bytes Uploaded, vector"
attr unit  B
vector 937  BasicTopology.peer[13].bitTorrentApp.bitTorrentClient.contentManager_26  TotalBytesUploaded:vector  ETV
attr source  ContentManager_TotalBytesUploaded
attr title  "Total of Bytes Uploaded, vector"
attr unit  B
vector 1009  BasicTopology.peer[22].bitTorrentApp.bitTorrentClient.contentManager_26  TotalBytesUploaded:vector  ETV
attr source  ContentManager_TotalBytesUploaded
attr title  "Total of Bytes Uploaded, vector"
attr unit  B
vector 887  BasicTopology.peer[7].bitTorrentApp.bitTorrentClient.contentManager_26  PiecesDownloaded:vector  ETV
attr source  ContentManager_PieceDownloaded
attr title  "Pieces Downloaded, vector"
vector 1001  BasicTopology.peer[21].bitTorrentApp.bitTorrentClient.contentManager_26  TotalBytesUploaded:vector  ETV
attr source  ContentManager_TotalBytesUploaded
attr title  "Total of Bytes Uploaded, vector"
attr unit  B
vector 895  BasicTopology.peer[8].bitTorrentApp.bitTorrentClient.contentManager_26  PiecesDownloaded:vector  ETV
attr source  ContentManager_PieceDownloaded
attr title  "Pieces Downloaded, vector"
vector 975  BasicTopology.peer[18].bitTorrentApp.bitTorrentClient.contentManager_26  PiecesDownloaded:vector  ETV
attr source  ContentManager_PieceDownloaded
attr title  "Pieces Downloaded, vector"
vector 927  BasicTopology.peer[12].bitTorrentApp.bitTorrentClient.contentManager_26  PiecesDownloaded:vector  ETV
attr source  ContentManager_PieceDownloaded
attr title  "Pieces Downloaded, vector"
vector 985  BasicTopology.peer[19].bitTorrentApp.bitTorrentClient.contentManager_26  TotalBytesUploaded:vector  ETV
attr source  ContentManager_TotalBytesUploaded
attr title  "Total of Bytes Uploaded, vector"
attr unit  B
vector 1025  BasicTopology.peer[24].bitTorrentApp.bitTorrentClient.contentManager_26  TotalBytesUploaded:vector  ETV
attr source  ContentManager_TotalBytesUploaded
attr title  "Total of Bytes Uploaded, vector"
attr unit  B
vector 929  BasicTopology.peer[12].bitTorrentApp.bitTorrentClient.contentManager_26  TotalBytesUploaded:vector  ETV
attr source  ContentManager_TotalBytesUploaded
attr title  "Total of Bytes Uploaded, vector"
attr unit  B
vector 1017  BasicTopology.peer[23].bitTorrentApp.bitTorrentClient.contentManager_26  TotalBytesUploaded:vector  ETV
attr source  ContentManager_TotalBytesUploaded
attr title  "Total of Bytes Uploaded, vector"
attr unit  B
vector 889  BasicTopology.peer[7].bitTorrentApp.bitTorrentClient.contentManager_26  TotalBytesUploaded:vector  ETV
attr source  ContentManager_TotalBytesUploaded
attr title  "Total of Bytes Uploaded, vector"
attr unit  B
vector 881  BasicTopology.peer[6].bitTorrentApp.bitTorrentClient.contentManager_26  TotalBytesUploaded:vector  ETV
attr source  ContentManager_TotalBytesUploaded
attr title  "Total of Bytes Uploaded, vector"
attr unit  B
vector 977  BasicTopology.peer[18].bitTorrentApp.bitTorrentClient.contentManager_26  TotalBytesUploaded:vector  ETV
attr source  ContentManager_TotalBytesUploaded
attr title  "Total of Bytes Uploaded, vector"
attr unit  B
vector 961  BasicTopology.peer[16].bitTorrentApp.bitTorrentClient.contentManager_26  TotalBytesUploaded:vector  ETV
attr source  ContentManager_TotalBytesUploaded
attr title  "Total of Bytes Uploaded, vector"
attr unit  B
3	85	36001	36001
3	83441282	36155.670266091597	36155.670266092
5	86	36001	36001
5	66962829	36120.921383469789	36120.92138347
7	87	36001	36001
7	55793916	36097.978045990809	36097.978045991
9	88	36001	36001
9	76249130	36140.531296529556	36140.53129653
11	89	36001	36001
11	77555456	36142.836655304043	36142.836655304
13	90	36001	36001
13	88647377	36303.567161489714	36303.56716149
15	91	36001	36001
15	85104713	36159.646794092113	36159.646794092
17	92	36001	36001
17	85813543	36161.565957429387	36161.565957429
19	93	36001	36001
19	70909225	36129.305596935432	36129.305596935
21	94	36001	36001
21	47169626	36081.836258806085	36081.836258806
23	95	36001	36001
23	50649968	36087.851799411155	36087.851799411
25	96	36001	36001
25	80218610	36148.507421197446	36148.507421197
27	97	36001	36001
27	78304282	36144.484103984127	36144.484103984
29	98	36001	36001
29	79120410	36146.449066384809	36146.449066385
31	99	36001	36001
31	85737009	36161.189053646658	36161.189053647
33	100	36001	36001
33	86825220	36166.160482889584	36166.16048289
35	101	36001	36001
35	79276138	36146.751727938472	36146.751727938
37	102	36001	36001
37	85073560	36159.553976361152	36159.553976361
39	103	36001	36001
39	85369982	36160.200642006454	36160.200642006
41	104	36001	36001
41	52791576	36092.012125295121	36092.012125295
43	105	36001	36001
43	49349926	36085.598389907599	36085.598389908
45	106	36001	36001
45	53025361	36092.578044471305	36092.578044471
47	107	36001	36001
47	63385776	36113.468633610653	36113.468633611
49	108	36001	36001
49	88589659	36302.807286132075	36302.807286132
833	111693	36001.079588189454	32768
833	133298	36001.099704743557	65536
833	133533	36001.100308614065	98304
833	134985	36001.10449115456	131072
833	136302	36001.113538933109	163840
833	136314	36001.119596395233	196608
833	136316	36001.119911164178	229376
833	157456	36001.137535383921	262144
833	158017	36001.13813764182	294912
833	172670	36001.152824721416	327680
833	185605	36001.171351010519	360448
833	197622	36001.190000971424	393216
833	197728	36001.190379482696	425984
833	199365	36001.196852371671	458752
833	202245	36001.215049049968	491520
833	202273	36001.22199364432	524288
833	202275	36001.236497508083	557056
833	202277	36001.239990126653	589824
833	202279	36001.240263600768	622592
833	202777	36001.245122388503	655360
833	369052	36002.054046877557	688128
833	376240	36002.077215310137	720896
833	376356	36002.078748398657	753664
833	384093	36002.102449145144	786432
833	386813	36002.115310200304	819200
833	391616	36002.133792027747	851968
833	392079	36002.134613930393	884736
833	398008	36002.153045184812	917504
833	401803	36002.177208707701	950272
833	401805	36002.187257247921	983040
833	405073	36002.311809467576	1015808
833	414103	36002.347035677591	1048576
833	517645	36002.618835528702	1081344
833	517785	36002.619075083704	1114112
833	520670	36002.629989315399	1146880
833	525178	36002.639921990994	1179648
833	528488	36002.643686793569	1212416
833	529224	36002.645042942779	1245184
833	529704	36002.64565773738	1277952
833	533881	36002.649618050189	1310720
833	572388	36002.700048447001	1343488
833	575871	36002.708399790543	1376256
833	581556	36002.720959424507	1409024
833	594729	36002.758116281195	1441792
833	595616	36002.760978748987	1474560
833	596403	36002.764704868544	1507328
833	596411	36002.76486076977	1540096
833	596451	36002.764923734326	1572864
833	596577	36002.765460669512	1605632
833	600404	36002.778070985104	1638400
833	600518	36002.778423296824	1671168
833	601485	36002.779661399368	1703936
833	604094	36002.783528980374	1736704
833	605562	36002.785341061864	1769472
833	664413	36003.342717681488	1802240
833	680178	36003.388761470778	1835008
833	688006	36003.408104031771	1867776
833	700103	36003.702159963883	1900544
833	714690	36003.75948041224	1933312
833	730942	36003.842677801954	1966080
833	751248	36003.907332435022	1998848
833	952936	36004.320388191809	2031616
833	1011248	36004.443355027138	2064384
833	1023660	36004.468182085287	2097152
833	1149276	36004.63777439251	2129920
833	1158750	36004.652199128807	2162688
833	1158784	36004.652294521481	2195456
833	1159767	36004.654019564785	2228224
833	1164538	36004.664469690797	2260992
833	1176833	36004.685851315442	2293760
833	1179207	36004.690919352027	2326528
833	1183634	36004.699649106268	2359296
833	1185407	36004.702529366153	2392064
833	1188071	36004.706671695762	2424832
833	1188110	36004.706731451455	2457600
833	1188846	36004.70841598668	2490368
833	1191239	36004.713948202967	2523136
833	1194204	36004.721449769605	2555904
833	1194676	36004.722129220849	2588672
833	1200750	36004.735189073008	2621440
833	1201027	36004.735825862617	2654208
833	1201295	36004.738046431238	2686976
833	1201298	36004.742280213066	2719744
833	1201714	36004.744128546269	2752512
833	1220925	36004.822231831863	2785280
833	1238514	36004.887710434152	2818048
833	1254240	36004.976096133193	2850816
833	1304868	36005.08175687468	2883584
833	1327543	36005.141611212022	2916352
833	1346310	36005.209446138634	2949120
833	1375340	36005.294925029133	2981888
833	1463692	36005.477849665699	3014656
833	1469570	36005.494065530939	3047424
833	1482296	36005.530940023872	3080192
833	1633196	36005.941355778046	3112960
833	1656171	36006.019303512993	3145728
833	1681057	36006.097965961962	3178496
833	1819899	36006.479414798367	3211264
833	1930181	36006.69307819493	3244032
833	2059022	36006.923699655704	3276800
833	2059753	36006.925397479709	3309568
833	2197725	36007.15196760427	3342336
833	2227074	36007.234036813524	3375104
833	2242458	36007.275546763723	3407872
833	2255659	36007.311962540273	3440640
833	2298432	36007.432599105197	3473408
833	2668469	36008.239199249845	3506176
833	2725041	36008.374749727058	3538944
833	3132431	36009.213650846547	3571712
833	3265407	36009.444163990476	3604480
833	3896523	36010.588301059136	3637248
833	3896745	36010.588918125237	3670016
833	3896747	36010.588919120246	3702784
833	3937444	36010.670965670809	3735552
833	4017667	36010.844203870011	3768320
833	4045105	36010.903174642091	3801088
833	4057500	36010.935752620672	3833856
833	4075436	36010.971498583885	3866624
833	4087581	36010.996667578639	3899392
833	4111085	36011.036279919942	3932160
833	4342961	36011.465739191375	3964928
833	4343248	36011.466512438418	3997696
833	4613026	36012.097693634069	4030464
833	4634629	36012.137015809028	4063232
833	4685774	36012.222459492107	4096000
833	4711520	36012.271132518286	4128768
833	4744643	36012.327711088981	4161536
833	5146745	36013.021692124669	4194304
833	5170953	36013.046051110896	4227072
833	5357919	36013.357162777437	4259840
833	5378524	36013.397916550867	4292608
833	5881675	36014.413914224156	4325376
833	5897699	36014.444161490439	4358144
833	5914776	36014.481430135463	4390912
833	6033782	36014.71449951112	4423680
833	6103832	36014.836450178549	4456448
833	6515753	36015.546567810842	4489216
833	6695024	36015.955395817517	4521984
833	6862245	36016.25248810557	4554752
833	6894856	36016.310206874433	4587520
833	7503098	36017.349790897925	4620288
833	7574176	36017.493751438338	4653056
833	8088262	36018.468411605737	4685824
833	8102868	36018.513475730299	4718592
833	8615318	36019.623904854513	4751360
833	8652519	36019.723314159196	4784128
833	8705290	36019.814390352947	4816896
833	9070398	36020.6448070329	4849664
833	9099762	36020.679102121397	4882432
833	9123546	36020.728615997441	4915200
833	9706913	36021.918430839704	4947968
833	9850238	36022.081631886036	4980736
833	10308958	36022.872065967149	5013504
833	10356102	36022.964600153529	5046272
833	10986055	36024.077241874815	5079040
833	11002845	36024.112024876469	5111808
833	11137779	36024.321685693179	5144576
833	11395036	36024.69328826076	5177344
833	11741021	36025.149879163471	5210112
833	11999723	36025.605535585614	5242880
833	12346229	36026.187333253272	5275648
833	12356917	36026.213927153537	5308416
833	12379674	36026.251579806174	5341184
833	12389445	36026.264315786268	5373952
833	12410955	36026.294665263688	5406720
833	12427621	36026.317651450052	5439488
833	12528482	36026.489380201701	5472256
833	12578636	36026.564295487552	5505024
833	12661723	36026.678717992354	5537792
833	12751804	36026.822517645442	5570560
833	12828473	36026.948995064069	5603328
833	12941240	36027.115378464337	5636096
833	13060567	36027.280447739687	5668864
833	13121295	36027.364284420737	5701632
833	13172441	36027.436554181478	5734400
833	13213935	36027.501584445669	5767168
833	13245217	36027.557348978577	5799936
833	13280465	36027.616401046732	5832704
833	13729857	36028.454875858888	5865472
833	13889311	36028.709472341455	5898240
833	13958060	36028.846577189166	5931008
833	14392139	36029.644791134577	5963776
833	14511896	36029.835781152519	5996544
833	14553061	36029.89374820458	6029312
833	14723501	36030.144670264285	6062080
833	15152552	36030.760775902087	6094848
833	15318948	36031.035092132878	6127616
833	16139084	36032.164555477256	6160384
833	16186074	36032.236487646141	6193152
833	16213349	36032.275033084629	6225920
833	16250718	36032.336589187851	6258688
833	16252160	36032.337952176188	6291456
833	16262482	36032.361447190181	6324224
833	16273360	36032.391390864697	6356992
833	16280761	36032.417715339194	6389760
833	16452176	36032.756653965563	6422528
833	16673650	36033.052980738558	6455296
833	16798454	36033.263385793155	6488064
833	16803626	36033.269338484509	6520832
833	16870086	36033.344925360901	6553600
833	16944595	36033.435496317659	6586368
833	16970572	36033.463449884276	6619136
833	16988938	36033.481924742509	6651904
833	17012239	36033.512200636445	6684672
833	17032642	36033.543026169955	6717440
833	17076113	36033.607478788475	6750208
833	17098739	36033.649468496861	6782976
833	17144461	36033.72477656547	6815744
833	17144712	36033.72506564051	6848512
833	17156569	36033.747809945852	6881280
833	17156620	36033.747943772986	6914048
833	17178775	36033.782963592934	6946816
833	17178853	36033.783171079868	6979584
833	17179095	36033.783522050357	7012352