version 2
run Test-17-20200424-20:20:04-7826
attr configname Test
attr datetime 20200424-20:20:04
attr experiment "\"Simulation Test\""
attr inifile BasicConfig.ini
attr iterationvars ""
attr iterationvars2 $repetition=17
attr measurement "\"Peers: $peers, Rate: $rate\""
attr network BasicTopology
attr processid 7826
attr repetition 17
attr replication #17
attr resultdir results
attr runnumber 17
attr seedset 17

vector 3  BasicTopology.peer[1].bitTorrentApp.bitTorrentClient  DownloadComplete_Test:vector  ETV
attr source  BitTorrentClient_DownloadComplete_Test
attr title  "Descargas completas (prueba), vector"
vector 5  BasicTopology.peer[2].bitTorrentApp.bitTorrentClient  DownloadComplete_Test:vector  ETV
attr source  BitTorrentClient_DownloadComplete_Test
attr title  "Descargas completas (prueba), vector"
vector 7  BasicTopology.peer[3].bitTorrentApp.bitTorrentClient  DownloadComplete_Test:vector  ETV
attr source  BitTorrentClient_DownloadComplete_Test
attr title  "Descargas completas (prueba), vector"
vector 9  BasicTopology.peer[4].bitTorrentApp.bitTorrentClient  DownloadComplete_Test:vector  ETV
attr source  BitTorrentClient_DownloadComplete_Test
attr title  "Descargas completas (prueba), vector"
vector 11  BasicTopology.peer[5].bitTorrentApp.bitTorrentClient  DownloadComplete_Test:vector  ETV
attr source  BitTorrentClient_DownloadComplete_Test
attr title  "Descargas completas (prueba), vector"
vector 13  BasicTopology.peer[6].bitTorrentApp.bitTorrentClient  DownloadComplete_Test:vector  ETV
attr source  BitTorrentClient_DownloadComplete_Test
attr title  "Descargas completas (prueba), vector"
vector 15  BasicTopology.peer[7].bitTorrentApp.bitTorrentClient  DownloadComplete_Test:vector  ETV
attr source  BitTorrentClient_DownloadComplete_Test
attr title  "Descargas completas (prueba), vector"
vector 17  BasicTopology.peer[8].bitTorrentApp.bitTorrentClient  DownloadComplete_Test:vector  ETV
attr source  BitTorrentClient_DownloadComplete_Test
attr title  "Descargas completas (prueba), vector"
vector 19  BasicTopology.peer[9].bitTorrentApp.bitTorrentClient  DownloadComplete_Test:vector  ETV
attr source  BitTorrentClient_DownloadComplete_Test
attr title  "Descargas completas (prueba), vector"
vector 21  BasicTopology.peer[10].bitTorrentApp.bitTorrentClient  DownloadComplete_Test:vector  ETV
attr source  BitTorrentClient_DownloadComplete_Test
attr title  "Descargas completas (prueba), vector"
vector 23  BasicTopology.peer[11].bitTorrentApp.bitTorrentClient  DownloadComplete_Test:vector  ETV
attr source  BitTorrentClient_DownloadComplete_Test
attr title  "Descargas completas (prueba), vector"
vector 25  BasicTopology.peer[12].bitTorrentApp.bitTorrentClient  DownloadComplete_Test:vector  ETV
attr source  BitTorrentClient_DownloadComplete_Test
attr title  "Descargas completas (prueba), vector"
vector 27  BasicTopology.peer[13].bitTorrentApp.bitTorrentClient  DownloadComplete_Test:vector  ETV
attr source  BitTorrentClient_DownloadComplete_Test
attr title  "Descargas completas (prueba), vector"
vector 29  BasicTopology.peer[14].bitTorrentApp.bitTorrentClient  DownloadComplete_Test:vector  ETV
attr source  BitTorrentClient_DownloadComplete_Test
attr title  "Descargas completas (prueba), vector"
vector 31  BasicTopology.peer[15].bitTorrentApp.bitTorrentClient  DownloadComplete_Test:vector  ETV
attr source  BitTorrentClient_DownloadComplete_Test
attr title  "Descargas completas (prueba), vector"
vector 33  BasicTopology.peer[16].bitTorrentApp.bitTorrentClient  DownloadComplete_Test:vector  ETV
attr source  BitTorrentClient_DownloadComplete_Test
attr title  "Descargas completas (prueba), vector"
vector 35  BasicTopology.peer[17].bitTorrentApp.bitTorrentClient  DownloadComplete_Test:vector  ETV
attr source  BitTorrentClient_DownloadComplete_Test
attr title  "Descargas completas (prueba), vector"
vector 37  BasicTopology.peer[18].bitTorrentApp.bitTorrentClient  DownloadComplete_Test:vector  ETV
attr source  BitTorrentClient_DownloadComplete_Test
attr title  "Descargas completas (prueba), vector"
vector 39  BasicTopology.peer[19].bitTorrentApp.bitTorrentClient  DownloadComplete_Test:vector  ETV
attr source  BitTorrentClient_DownloadComplete_Test
attr title  "Descargas completas (prueba), vector"
vector 41  BasicTopology.peer[20].bitTorrentApp.bitTorrentClient  DownloadComplete_Test:vector  ETV
attr source  BitTorrentClient_DownloadComplete_Test
attr title  "Descargas completas (prueba), vector"
vector 43  BasicTopology.peer[21].bitTorrentApp.bitTorrentClient  DownloadComplete_Test:vector  ETV
attr source  BitTorrentClient_DownloadComplete_Test
attr title  "Descargas completas (prueba), vector"
vector 45  BasicTopology.peer[22].bitTorrentApp.bitTorrentClient  DownloadComplete_Test:vector  ETV
attr source  BitTorrentClient_DownloadComplete_Test
attr title  "Descargas completas (prueba), vector"
vector 47  BasicTopology.peer[23].bitTorrentApp.bitTorrentClient  DownloadComplete_Test:vector  ETV
attr source  BitTorrentClient_DownloadComplete_Test
attr title  "Descargas completas (prueba), vector"
vector 49  BasicTopology.peer[24].bitTorrentApp.bitTorrentClient  DownloadComplete_Test:vector  ETV
attr source  BitTorrentClient_DownloadComplete_Test
attr title  "Descargas completas (prueba), vector"
vector 833  BasicTopology.peer[0].bitTorrentApp.bitTorrentClient.contentManager_26  TotalBytesUploaded:vector  ETV
attr source  ContentManager_TotalBytesUploaded
attr title  "Total of Bytes Uploaded, vector"
attr unit  B
vector 840  BasicTopology.peer[1].bitTorrentApp.bitTorrentClient.contentManager_26  TotalBytesDownloaded:vector  ETV
attr source  ContentManager_TotalBytesDownloaded
attr title  "Total of Bytes Downloaded, vector"
attr unit  B
vector 920  BasicTopology.peer[11].bitTorrentApp.bitTorrentClient.contentManager_26  TotalBytesDownloaded:vector  ETV
attr source  ContentManager_TotalBytesDownloaded
attr title  "Total of Bytes Downloaded, vector"
attr unit  B
vector 1000  BasicTopology.peer[21].bitTorrentApp.bitTorrentClient.contentManager_26  TotalBytesDownloaded:vector  ETV
attr source  ContentManager_TotalBytesDownloaded
attr title  "Total of Bytes Downloaded, vector"
attr unit  B
vector 992  BasicTopology.peer[20].bitTorrentApp.bitTorrentClient.contentManager_26  TotalBytesDownloaded:vector  ETV
attr source  ContentManager_TotalBytesDownloaded
attr title  "Total of Bytes Downloaded, vector"
attr unit  B
vector 839  BasicTopology.peer[1].bitTorrentApp.bitTorrentClient.contentManager_26  PiecesDownloaded:vector  ETV
attr source  ContentManager_PieceDownloaded
attr title  "Pieces Downloaded, vector"
vector 841  BasicTopology.peer[1].bitTorrentApp.bitTorrentClient.contentManager_26  TotalBytesUploaded:vector  ETV
attr source  ContentManager_TotalBytesUploaded
attr title  "Total of Bytes Uploaded, vector"
attr unit  B
vector 1008  BasicTopology.peer[22].bitTorrentApp.bitTorrentClient.contentManager_26  TotalBytesDownloaded:vector  ETV
attr source  ContentManager_TotalBytesDownloaded
attr title  "Total of Bytes Downloaded, vector"
attr unit  B
vector 936  BasicTopology.peer[13].bitTorrentApp.bitTorrentClient.contentManager_26  TotalBytesDownloaded:vector  ETV
attr source  ContentManager_TotalBytesDownloaded
attr title  "Total of Bytes Downloaded, vector"
attr unit  B
vector 864  BasicTopology.peer[4].bitTorrentApp.bitTorrentClient.contentManager_26  TotalBytesDownloaded:vector  ETV
attr source  ContentManager_TotalBytesDownloaded
attr title  "Total of Bytes Downloaded, vector"
attr unit  B
vector 991  BasicTopology.peer[20].bitTorrentApp.bitTorrentClient.contentManager_26  PiecesDownloaded:vector  ETV
attr source  ContentManager_PieceDownloaded
attr title  "Pieces Downloaded, vector"
vector 993  BasicTopology.peer[20].bitTorrentApp.bitTorrentClient.contentManager_26  TotalBytesUploaded:vector  ETV
attr source  ContentManager_TotalBytesUploaded
attr title  "Total of Bytes Uploaded, vector"
attr unit  B
vector 872  BasicTopology.peer[5].bitTorrentApp.bitTorrentClient.contentManager_26  TotalBytesDownloaded:vector  ETV
attr source  ContentManager_TotalBytesDownloaded
attr title  "Total of Bytes Downloaded, vector"
attr unit  B
vector 919  BasicTopology.peer[11].bitTorrentApp.bitTorrentClient.contentManager_26  PiecesDownloaded:vector  ETV
attr source  ContentManager_PieceDownloaded
attr title  "Pieces Downloaded, vector"
vector 921  BasicTopology.peer[11].bitTorrentApp.bitTorrentClient.contentManager_26  TotalBytesUploaded:vector  ETV
attr source  ContentManager_TotalBytesUploaded
attr title  "Total of Bytes Uploaded, vector"
attr unit  B
vector 944  BasicTopology.peer[14].bitTorrentApp.bitTorrentClient.contentManager_26  TotalBytesDownloaded:vector  ETV
attr source  ContentManager_TotalBytesDownloaded
attr title  "Total of Bytes Downloaded, vector"
attr unit  B
vector 880  BasicTopology.peer[6].bitTorrentApp.bitTorrentClient.contentManager_26  TotalBytesDownloaded:vector  ETV
attr source  ContentManager_TotalBytesDownloaded
attr title  "Total of Bytes Downloaded, vector"
attr unit  B
vector 968  BasicTopology.peer[17].bitTorrentApp.bitTorrentClient.contentManager_26  TotalBytesDownloaded:vector  ETV
attr source  ContentManager_TotalBytesDownloaded
attr title  "Total of Bytes Downloaded, vector"
attr unit  B
vector 928  BasicTopology.peer[12].bitTorrentApp.bitTorrentClient.contentManager_26  TotalBytesDownloaded:vector  ETV
attr source  ContentManager_TotalBytesDownloaded
attr title  "Total of Bytes Downloaded, vector"
attr unit  B
vector 999  BasicTopology.peer[21].bitTorrentApp.bitTorrentClient.contentManager_26  PiecesDownloaded:vector  ETV
attr source  ContentManager_PieceDownloaded
attr title  "Pieces Downloaded, vector"
vector 1001  BasicTopology.peer[21].bitTorrentApp.bitTorrentClient.contentManager_26  TotalBytesUploaded:vector  ETV
attr source  ContentManager_TotalBytesUploaded
attr title  "Total of Bytes Uploaded, vector"
attr unit  B
vector 904  BasicTopology.peer[9].bitTorrentApp.bitTorrentClient.contentManager_26  TotalBytesDownloaded:vector  ETV
attr source  ContentManager_TotalBytesDownloaded
attr title  "Total of Bytes Downloaded, vector"
attr unit  B
vector 912  BasicTopology.peer[10].bitTorrentApp.bitTorrentClient.contentManager_26  TotalBytesDownloaded:vector  ETV
attr source  ContentManager_TotalBytesDownloaded
attr title  "Total of Bytes Downloaded, vector"
attr unit  B
vector 856  BasicTopology.peer[3].bitTorrentApp.bitTorrentClient.contentManager_26  TotalBytesDownloaded:vector  ETV
attr source  ContentManager_TotalBytesDownloaded
attr title  "Total of Bytes Downloaded, vector"
attr unit  B
vector 888  BasicTopology.peer[7].bitTorrentApp.bitTorrentClient.contentManager_26  TotalBytesDownloaded:vector  ETV
attr source  ContentManager_TotalBytesDownloaded
attr title  "Total of Bytes Downloaded, vector"
attr unit  B
vector 848  BasicTopology.peer[2].bitTorrentApp.bitTorrentClient.contentManager_26  TotalBytesDownloaded:vector  ETV
attr source  ContentManager_TotalBytesDownloaded
attr title  "Total of Bytes Downloaded, vector"
attr unit  B
vector 1007  BasicTopology.peer[22].bitTorrentApp.bitTorrentClient.contentManager_26  PiecesDownloaded:vector  ETV
attr source  ContentManager_PieceDownloaded
attr title  "Pieces Downloaded, vector"
vector 863  BasicTopology.peer[4].bitTorrentApp.bitTorrentClient.contentManager_26  PiecesDownloaded:vector  ETV
attr source  ContentManager_PieceDownloaded
attr title  "Pieces Downloaded, vector"
vector 935  BasicTopology.peer[13].bitTorrentApp.bitTorrentClient.contentManager_26  PiecesDownloaded:vector  ETV
attr source  ContentManager_PieceDownloaded
attr title  "Pieces Downloaded, vector"
vector 865  BasicTopology.peer[4].bitTorrentApp.bitTorrentClient.contentManager_26  TotalBytesUploaded:vector  ETV
attr source  ContentManager_TotalBytesUploaded
attr title  "Total of Bytes Uploaded, vector"
attr unit  B
vector 937  BasicTopology.peer[13].bitTorrentApp.bitTorrentClient.contentManager_26  TotalBytesUploaded:vector  ETV
attr source  ContentManager_TotalBytesUploaded
attr title  "Total of Bytes Uploaded, vector"
attr unit  B
vector 896  BasicTopology.peer[8].bitTorrentApp.bitTorrentClient.contentManager_26  TotalBytesDownloaded:vector  ETV
attr source  ContentManager_TotalBytesDownloaded
attr title  "Total of Bytes Downloaded, vector"
attr unit  B
vector 952  BasicTopology.peer[15].bitTorrentApp.bitTorrentClient.contentManager_26  TotalBytesDownloaded:vector  ETV
attr source  ContentManager_TotalBytesDownloaded
attr title  "Total of Bytes Downloaded, vector"
attr unit  B
vector 1016  BasicTopology.peer[23].bitTorrentApp.bitTorrentClient.contentManager_26  TotalBytesDownloaded:vector  ETV
attr source  ContentManager_TotalBytesDownloaded
attr title  "Total of Bytes Downloaded, vector"
attr unit  B
vector 960  BasicTopology.peer[16].bitTorrentApp.bitTorrentClient.contentManager_26  TotalBytesDownloaded:vector  ETV
attr source  ContentManager_TotalBytesDownloaded
attr title  "Total of Bytes Downloaded, vector"
attr unit  B
vector 911  BasicTopology.peer[10].bitTorrentApp.bitTorrentClient.contentManager_26  PiecesDownloaded:vector  ETV
attr source  ContentManager_PieceDownloaded
attr title  "Pieces Downloaded, vector"
vector 913  BasicTopology.peer[10].bitTorrentApp.bitTorrentClient.contentManager_26  TotalBytesUploaded:vector  ETV
attr source  ContentManager_TotalBytesUploaded
attr title  "Total of Bytes Uploaded, vector"
attr unit  B
vector 871  BasicTopology.peer[5].bitTorrentApp.bitTorrentClient.contentManager_26  PiecesDownloaded:vector  ETV
attr source  ContentManager_PieceDownloaded
attr title  "Pieces Downloaded, vector"
vector 873  BasicTopology.peer[5].bitTorrentApp.bitTorrentClient.contentManager_26  TotalBytesUploaded:vector  ETV
attr source  ContentManager_TotalBytesUploaded
attr title  "Total of Bytes Uploaded, vector"
attr unit  B
vector 1024  BasicTopology.peer[24].bitTorrentApp.bitTorrentClient.contentManager_26  TotalBytesDownloaded:vector  ETV
attr source  ContentManager_TotalBytesDownloaded
attr title  "Total of Bytes Downloaded, vector"
attr unit  B
vector 879  BasicTopology.peer[6].bitTorrentApp.bitTorrentClient.contentManager_26  PiecesDownloaded:vector  ETV
attr source  ContentManager_PieceDownloaded
attr title  "Pieces Downloaded, vector"
vector 881  BasicTopology.peer[6].bitTorrentApp.bitTorrentClient.contentManager_26  TotalBytesUploaded:vector  ETV
attr source  ContentManager_TotalBytesUploaded
attr title  "Total of Bytes Uploaded, vector"
attr unit  B
vector 1015  BasicTopology.peer[23].bitTorrentApp.bitTorrentClient.contentManager_26  PiecesDownloaded:vector  ETV
attr source  ContentManager_PieceDownloaded
attr title  "Pieces Downloaded, vector"
vector 1017  BasicTopology.peer[23].bitTorrentApp.bitTorrentClient.contentManager_26  TotalBytesUploaded:vector  ETV
attr source  ContentManager_TotalBytesUploaded
attr title  "Total of Bytes Uploaded, vector"
attr unit  B
vector 855  BasicTopology.peer[3].bitTorrentApp.bitTorrentClient.contentManager_26  PiecesDownloaded:vector  ETV
attr source  ContentManager_PieceDownloaded
attr title  "Pieces Downloaded, vector"
vector 887  BasicTopology.peer[7].bitTorrentApp.bitTorrentClient.contentManager_26  PiecesDownloaded:vector  ETV
attr source  ContentManager_PieceDownloaded
attr title  "Pieces Downloaded, vector"
vector 889  BasicTopology.peer[7].bitTorrentApp.bitTorrentClient.contentManager_26  TotalBytesUploaded:vector  ETV
attr source  ContentManager_TotalBytesUploaded
attr title  "Total of Bytes Uploaded, vector"
attr unit  B
vector 951  BasicTopology.peer[15].bitTorrentApp.bitTorrentClient.contentManager_26  PiecesDownloaded:vector  ETV
attr source  ContentManager_PieceDownloaded
attr title  "Pieces Downloaded, vector"
vector 984  BasicTopology.peer[19].bitTorrentApp.bitTorrentClient.contentManager_26  TotalBytesDownloaded:vector  ETV
attr source  ContentManager_TotalBytesDownloaded
attr title  "Total of Bytes Downloaded, vector"
attr unit  B
vector 895  BasicTopology.peer[8].bitTorrentApp.bitTorrentClient.contentManager_26  PiecesDownloaded:vector  ETV
attr source  ContentManager_PieceDownloaded
attr title  "Pieces Downloaded, vector"
vector 927  BasicTopology.peer[12].bitTorrentApp.bitTorrentClient.contentManager_26  PiecesDownloaded:vector  ETV
attr source  ContentManager_PieceDownloaded
attr title  "Pieces Downloaded, vector"
vector 1009  BasicTopology.peer[22].bitTorrentApp.bitTorrentClient.contentManager_26  TotalBytesUploaded:vector  ETV
attr source  ContentManager_TotalBytesUploaded
attr title  "Total of Bytes Uploaded, vector"
attr unit  B
vector 903  BasicTopology.peer[9].bitTorrentApp.bitTorrentClient.contentManager_26  PiecesDownloaded:vector  ETV
attr source  ContentManager_PieceDownloaded
attr title  "Pieces Downloaded, vector"
vector 976  BasicTopology.peer[18].bitTorrentApp.bitTorrentClient.contentManager_26  TotalBytesDownloaded:vector  ETV
attr source  ContentManager_TotalBytesDownloaded
attr title  "Total of Bytes Downloaded, vector"
attr unit  B
vector 959  BasicTopology.peer[16].bitTorrentApp.bitTorrentClient.contentManager_26  PiecesDownloaded:vector  ETV
attr source  ContentManager_PieceDownloaded
attr title  "Pieces Downloaded, vector"
vector 943  BasicTopology.peer[14].bitTorrentApp.bitTorrentClient.contentManager_26  PiecesDownloaded:vector  ETV
attr source  ContentManager_PieceDownloaded
attr title  "Pieces Downloaded, vector"
vector 983  BasicTopology.peer[19].bitTorrentApp.bitTorrentClient.contentManager_26  PiecesDownloaded:vector  ETV
attr source  ContentManager_PieceDownloaded
attr title  "Pieces Downloaded, vector"
vector 847  BasicTopology.peer[2].bitTorrentApp.bitTorrentClient.contentManager_26  PiecesDownloaded:vector  ETV
attr source  ContentManager_PieceDownloaded
attr title  "Pieces Downloaded, vector"
vector 849  BasicTopology.peer[2].bitTorrentApp.bitTorrentClient.contentManager_26  TotalBytesUploaded:vector  ETV
attr source  ContentManager_TotalBytesUploaded
attr title  "Total of Bytes Uploaded, vector"
attr unit  B
vector 1023  BasicTopology.peer[24].bitTorrentApp.bitTorrentClient.contentManager_26  PiecesDownloaded:vector  ETV
attr source  ContentManager_PieceDownloaded
attr title  "Pieces Downloaded, vector"
vector 1025  BasicTopology.peer[24].bitTorrentApp.bitTorrentClient.contentManager_26  TotalBytesUploaded:vector  ETV
attr source  ContentManager_TotalBytesUploaded
attr title  "Total of Bytes Uploaded, vector"
attr unit  B
vector 967  BasicTopology.peer[17].bitTorrentApp.bitTorrentClient.contentManager_26  PiecesDownloaded:vector  ETV
attr source  ContentManager_PieceDownloaded
attr title  "Pieces Downloaded, vector"
vector 961  BasicTopology.peer[16].bitTorrentApp.bitTorrentClient.contentManager_26  TotalBytesUploaded:vector  ETV
attr source  ContentManager_TotalBytesUploaded
attr title  "Total of Bytes Uploaded, vector"
attr unit  B
vector 975  BasicTopology.peer[18].bitTorrentApp.bitTorrentClient.contentManager_26  PiecesDownloaded:vector  ETV
attr source  ContentManager_PieceDownloaded
attr title  "Pieces Downloaded, vector"
vector 929  BasicTopology.peer[12].bitTorrentApp.bitTorrentClient.contentManager_26  TotalBytesUploaded:vector  ETV
attr source  ContentManager_TotalBytesUploaded
attr title  "Total of Bytes Uploaded, vector"
attr unit  B
vector 857  BasicTopology.peer[3].bitTorrentApp.bitTorrentClient.contentManager_26  TotalBytesUploaded:vector  ETV
attr source  ContentManager_TotalBytesUploaded
attr title  "Total of Bytes Uploaded, vector"
attr unit  B
vector 897  BasicTopology.peer[8].bitTorrentApp.bitTorrentClient.contentManager_26  TotalBytesUploaded:vector  ETV
attr source  ContentManager_TotalBytesUploaded
attr title  "Total of Bytes Uploaded, vector"
attr unit  B
vector 977  BasicTopology.peer[18].bitTorrentApp.bitTorrentClient.contentManager_26  TotalBytesUploaded:vector  ETV
attr source  ContentManager_TotalBytesUploaded
attr title  "Total of Bytes Uploaded, vector"
attr unit  B
vector 953  BasicTopology.peer[15].bitTorrentApp.bitTorrentClient.contentManager_26  TotalBytesUploaded:vector  ETV
attr source  ContentManager_TotalBytesUploaded
attr title  "Total of Bytes Uploaded, vector"
attr unit  B
3	85	36001	36001
3	43443569	36077.263125873603	36077.263125874
5	86	36001	36001
5	72542140	36134.820553034143	36134.820553034
7	87	36001	36001
7	81736303	36154.148372650156	36154.14837265
9	88	36001	36001
9	87886414	36170.427686917127	36170.427686917
11	89	36001	36001
11	77769537	36145.926234892079	36145.926234892
13	90	36001	36001
13	83727102	36159.138525587654	36159.138525588
15	91	36001	36001
15	82896181	36157.195340182394	36157.195340182
17	92	36001	36001
17	79255134	36149.021107056441	36149.021107056
19	93	36001	36001
19	69319516	36127.790895299761	36127.7908953
21	94	36001	36001
21	57558690	36103.624716418174	36103.624716418
23	95	36001	36001
23	75540262	36141.241699104478	36141.241699104
25	96	36001	36001
25	88878736	36175.007406043102	36175.007406043
27	97	36001	36001
27	93814935	36305.023427764218	36305.023427764
29	98	36001	36001
29	75737460	36141.801621261552	36141.801621262
31	99	36001	36001
31	91111779	36184.598992385433	36184.598992385
33	100	36001	36001
33	69891682	36128.989010258323	36128.989010258
35	101	36001	36001
35	88629948	36173.646548342176	36173.646548342
37	102	36001	36001
37	83508575	36158.535208849793	36158.53520885
39	103	36001	36001
39	92854064	36192.010483035894	36192.010483036
41	104	36001	36001
41	40922392	36072.518686878708	36072.518686879
43	105	36001	36001
43	76666117	36143.686392467348	36143.686392467
45	106	36001	36001
45	87056774	36168.345460632895	36168.345460633
47	107	36001	36001
47	87934847	36171.265997969493	36171.265997969
49	108	36001	36001
49	52702525	36094.627780616078	36094.627780616
833	108631	36001.081143544765	32768
833	111164	36001.083551803205	65536
833	111765	36001.084072924926	98304
833	112360	36001.084680620348	131072
833	118183	36001.091036738162	163840
833	122482	36001.097838423262	196608
833	126402	36001.115450797833	229376
833	156951	36001.147525823927	262144
833	157278	36001.148201926485	294912
833	172070	36001.171112152684	327680
833	281126	36001.580759268801	360448
833	281836	36001.581621098294	393216
833	283252	36001.583244863998	425984
833	291288	36001.593713434236	458752
833	291307	36001.593731691991	491520
833	294820	36001.59904396994	524288
833	295089	36001.599328672445	557056
833	300867	36001.606516412702	589824
833	305148	36001.611413824181	622592
833	314627	36001.630264482409	655360
833	315827	36001.635044811668	688128
833	319961	36001.640944020903	720896
833	320123	36001.641418317359	753664
833	326394	36001.649668738018	786432
833	326655	36001.650251268632	819200
833	329985	36001.660677384915	851968
833	340942	36001.67875821695	884736
833	344898	36001.693730148228	917504
833	350357	36001.703927627908	950272
833	356427	36001.712573593053	983040
833	451607	36002.474100372658	1015808
833	532145	36002.567193664074	1048576
833	536210	36002.572675230429	1081344
833	536262	36002.572809673398	1114112
833	536483	36002.573316876327	1146880
833	537118	36002.574063944412	1179648
833	543835	36002.582656337754	1212416
833	544639	36002.583564455691	1245184
833	548024	36002.588175627499	1277952
833	550790	36002.596448272155	1310720
833	551312	36002.598880669099	1343488
833	572926	36002.723704217242	1376256
833	574061	36002.727586546987	1409024
833	576983	36002.73533019768	1441792
833	584045	36002.755309449321	1474560
833	587829	36002.768746277419	1507328
833	588008	36002.770503773777	1540096
833	588121	36002.770788769727	1572864
833	589398	36002.774882689336	1605632
833	593577	36002.785696946203	1638400
833	601705	36002.816266774795	1671168
833	606456	36002.828873037636	1703936
833	619788	36002.864750163791	1736704
833	636619	36003.059898146698	1769472
833	659277	36003.135973935693	1802240
833	667234	36003.536903456852	1835008
833	682668	36003.588154058675	1867776
833	695785	36003.632326202407	1900544
833	711198	36003.684385351006	1933312
833	725860	36003.734921875524	1966080
833	745575	36003.914570227274	1998848
833	753827	36003.935793434995	2031616
833	764620	36003.983523426427	2064384
833	923628	36004.165044898026	2097152
833	926183	36004.173707246425	2129920
833	926609	36004.174562125099	2162688
833	927131	36004.17615899111	2195456
833	927785	36004.177770396068	2228224
833	931260	36004.189556604017	2260992
833	932754	36004.194194199283	2293760
833	941371	36004.218261516013	2326528
833	941377	36004.222061122706	2359296
833	941379	36004.222909434092	2392064
833	941381	36004.229747328873	2424832
833	941383	36004.242671303013	2457600
833	941385	36004.243804272766	2490368
833	941388	36004.253378243528	2523136
833	941390	36004.256284516163	2555904
833	941392	36004.25706770775	2588672
833	941394	36004.267086300544	2621440
833	941396	36004.267485440759	2654208
833	941398	36004.268690443687	2686976
833	941400	36004.273147088861	2719744
833	1068620	36004.785481748177	2752512
833	1103088	36004.867794686181	2785280
833	1172521	36005.031245555439	2818048
833	1216699	36005.105925618205	2850816
833	1238073	36005.180859783543	2883584
833	1274868	36005.286492257232	2916352
833	1308631	36005.371377013635	2949120
833	1333528	36005.456581312646	2981888
833	1379914	36005.831118542511	3014656
833	1408977	36005.92151312626	3047424
833	1435960	36006.001258328062	3080192
833	1459231	36006.06199135504	3112960
833	1520844	36006.232735034964	3145728
833	1547611	36006.304865803024	3178496
833	1606129	36006.456580633182	3211264
833	1664914	36006.603043974439	3244032
833	1714563	36006.700313311055	3276800
833	1872671	36007.082836057759	3309568
833	1896274	36007.145149570482	3342336
833	1910124	36007.182788201511	3375104
833	1938736	36007.245329849243	3407872
833	2062258	36007.533782958422	3440640
833	2111141	36007.642778927228	3473408
833	2151423	36007.745017347777	3506176
833	2208680	36007.875276013646	3538944
833	2240996	36007.945455496851	3571712
833	2338775	36008.203150275303	3604480
833	2356185	36008.249379206258	3637248
833	2658026	36008.917805206404	3670016
833	2715049	36009.045551030128	3702784
833	2838453	36009.374277168468	3735552
833	2885374	36009.487881348256	3768320
833	3093688	36009.969907652267	3801088
833	3241197	36010.157439130162	3833856
833	3257283	36010.197354377706	3866624
833	3448974	36010.548925033856	3899392
833	3479894	36010.606502653841	3932160
833	3545845	36010.754528965539	3964928
833	3819865	36011.311732937536	3997696
833	3836775	36011.35218645727	4030464
833	4050076	36011.889286657231	4063232
833	4553482	36013.020126439622	4096000
833	4605943	36013.103914475602	4128768
833	4674027	36013.241222883674	4161536
833	4789165	36013.469945845939	4194304
833	4810814	36013.508076782383	4227072
833	5230888	36014.367168669205	4259840
833	5289664	36014.453700918596	4292608
833	5421079	36014.646718277105	4325376
833	5601827	36014.91018702213	4358144
833	5701910	36015.076376921521	4390912
833	5932701	36015.548066653984	4423680
833	6020401	36015.722985675266	4456448
833	6050480	36015.773667575565	4489216
833	6121060	36015.886319021756	4521984
833	6149828	36015.937461801406	4554752
833	6278189	36016.187297518612	4587520
833	6572403	36016.836572570067	4620288
833	6623702	36016.930146388949	4653056
833	6694156	36017.031077591036	4685824
833	6932240	36017.455982337115	4718592
833	6933474	36017.458121583746	4751360
833	6934945	36017.460232827852	4784128
833	7179228	36017.846362824074	4816896
833	7328982	36018.07439326741	4849664
833	7714949	36018.97747694282	4882432
833	7774634	36019.119940050502	4915200
833	7828290	36019.227224072803	4947968
833	8032124	36019.577645295625	4980736
833	8363210	36020.199921918554	5013504
833	8405108	36020.25644651977	5046272
833	8435517	36020.309817976933	5079040
833	8484529	36020.396796818072	5111808
833	8527925	36020.472545967659	5144576
833	8558655	36020.529141404296	5177344
833	8601147	36020.587281510955	5210112
833	8934564	36021.191547367928	5242880
833	9027469	36021.330165074737	5275648
833	9058319	36021.37771380908	5308416
833	9092432	36021.430656433713	5341184
833	9135016	36021.506160116385	5373952
833	9172322	36021.564046438761	5406720
833	9175629	36021.569762377058	5439488
833	9215624	36021.623861671605	5472256
833	9315835	36021.751448588537	5505024
833	9410942	36021.874362152574	5537792
833	9831334	36022.49733939027	5570560
833	9942258	36022.65461985749	5603328
833	10026421	36022.769197438707	5636096
833	10146670	36022.939593122883	5668864
833	11349897	36024.886681182689	5701632
833	11404291	36024.962493778986	5734400
833	11506033	36025.086098394066	5767168
833	11617562	36025.231717027565	5799936
833	11676831	36025.304496751483	5832704
833	11747007	36025.407405526279	5865472
833	11773535	36025.44813929819	5898240
833	12096844	36026.096076844757	5931008
833	12138295	36026.16159640867	5963776
833	12335058	36026.451327342525	5996544
833	12455470	36026.610944399727	6029312
833	12509166	36026.701810582191	6062080
833	12692546	36027.012498921054	6094848
833	12734235	36027.079164347206	6127616
833	12787506	36027.172126563937	6160384
833	12843492	36027.269229375281	6193152
833	12931454	36027.390191486795	6225920
833	12992567	36027.471753803211	6258688
833	13067093	36027.563341759387	6291456
833	13151287	36027.668474549944	6324224
833	13217679	36027.756477900204	6356992
833	13233612	36027.780621125042	6389760
833	13292344	36027.872695147425	6422528
833	13371432	36027.997381264074	6455296
833	13472937	36028.132220616961	6488064
833	13876615	36028.786749304612	6520832
833	13963905	36028.914740532814	6553600
833	14529482	36030.015660081446	6586368
833	14652390	36030.222139037851	6619136
833	14676122	36030.253352337336	6651904
833	15162798	36031.069775643342	6684672
833	15163498	36031.070400978997	6717440
833	15165925	36031.073449221263	6750208
833	15174336	36031.084438092493	6782976
833	15187509	36031.104641934637	6815744
833	15196445	36031.11676859246	6848512
833	15199337	36031.120441116535	6881280
833	15199693	36031.121036337575	6914048
833	15199820	36031.121189741646	6946816
833	15200570	36031.122739360773	6979584
833	15210356	36031.135193801342	7012352
833	15213786	36031.140743014918	7045120