version 2
run Test-9-20200424-20:17:59-7743
attr configname Test
attr datetime 20200424-20:17:59
attr experiment "\"Simulation Test\""
attr inifile BasicConfig.ini
attr iterationvars ""
attr iterationvars2 $repetition=9
attr measurement "\"Peers: $peers, Rate: $rate\""
attr network BasicTopology
attr processid 7743
attr repetition 9
attr replication #9
attr resultdir results
attr runnumber 9
attr seedset 9

vector 3  BasicTopology.peer[1].bitTorrentApp.bitTorrentClient  DownloadComplete_Test:vector  ETV
attr source  BitTorrentClient_DownloadComplete_Test
attr title  "Descargas completas (prueba), vector"
vector 5  BasicTopology.peer[2].bitTorrentApp.bitTorrentClient  DownloadComplete_Test:vector  ETV
attr source  BitTorrentClient_DownloadComplete_Test
attr title  "Descargas completas (prueba), vector"
vector 7  BasicTopology.peer[3].bitTorrentApp.bitTorrentClient  DownloadComplete_Test:vector  ETV
attr source  BitTorrentClient_DownloadComplete_Test
attr title  "Descargas completas (prueba), vector"
vector 9  BasicTopology.peer[4].bitTorrentApp.bitTorrentClient  DownloadComplete_Test:vector  ETV
attr source  BitTorrentClient_DownloadComplete_Test
attr title  "Descargas completas (prueba), vector"
vector 11  BasicTopology.peer[5].bitTorrentApp.bitTorrentClient  DownloadComplete_Test:vector  ETV
attr source  BitTorrentClient_DownloadComplete_Test
attr title  "Descargas completas (prueba), vector"
vector 13  BasicTopology.peer[6].bitTorrentApp.bitTorrentClient  DownloadComplete_Test:vector  ETV
attr source  BitTorrentClient_DownloadComplete_Test
attr title  "Descargas completas (prueba), vector"
vector 15  BasicTopology.peer[7].bitTorrentApp.bitTorrentClient  DownloadComplete_Test:vector  ETV
attr source  BitTorrentClient_DownloadComplete_Test
attr title  "Descargas completas (prueba), vector"
vector 17  BasicTopology.peer[8].bitTorrentApp.bitTorrentClient  DownloadComplete_Test:vector  ETV
attr source  BitTorrentClient_DownloadComplete_Test
attr title  "Descargas completas (prueba), vector"
vector 19  BasicTopology.peer[9].bitTorrentApp.bitTorrentClient  DownloadComplete_Test:vector  ETV
attr source  BitTorrentClient_DownloadComplete_Test
attr title  "Descargas completas (prueba), vector"
vector 21  BasicTopology.peer[10].bitTorrentApp.bitTorrentClient  DownloadComplete_Test:vector  ETV
attr source  BitTorrentClient_DownloadComplete_Test
attr title  "Descargas completas (prueba), vector"
vector 23  BasicTopology.peer[11].bitTorrentApp.bitTorrentClient  DownloadComplete_Test:vector  ETV
attr source  BitTorrentClient_DownloadComplete_Test
attr title  "Descargas completas (prueba), vector"
vector 25  BasicTopology.peer[12].bitTorrentApp.bitTorrentClient  DownloadComplete_Test:vector  ETV
attr source  BitTorrentClient_DownloadComplete_Test
attr title  "Descargas completas (prueba), vector"
vector 27  BasicTopology.peer[13].bitTorrentApp.bitTorrentClient  DownloadComplete_Test:vector  ETV
attr source  BitTorrentClient_DownloadComplete_Test
attr title  "Descargas completas (prueba), vector"
vector 29  BasicTopology.peer[14].bitTorrentApp.bitTorrentClient  DownloadComplete_Test:vector  ETV
attr source  BitTorrentClient_DownloadComplete_Test
attr title  "Descargas completas (prueba), vector"
vector 31  BasicTopology.peer[15].bitTorrentApp.bitTorrentClient  DownloadComplete_Test:vector  ETV
attr source  BitTorrentClient_DownloadComplete_Test
attr title  "Descargas completas (prueba), vector"
vector 33  BasicTopology.peer[16].bitTorrentApp.bitTorrentClient  DownloadComplete_Test:vector  ETV
attr source  BitTorrentClient_DownloadComplete_Test
attr title  "Descargas completas (prueba), vector"
vector 35  BasicTopology.peer[17].bitTorrentApp.bitTorrentClient  DownloadComplete_Test:vector  ETV
attr source  BitTorrentClient_DownloadComplete_Test
attr title  "Descargas completas (prueba), vector"
vector 37  BasicTopology.peer[18].bitTorrentApp.bitTorrentClient  DownloadComplete_Test:vector  ETV
attr source  BitTorrentClient_DownloadComplete_Test
attr title  "Descargas completas (prueba), vector"
vector 39  BasicTopology.peer[19].bitTorrentApp.bitTorrentClient  DownloadComplete_Test:vector  ETV
attr source  BitTorrentClient_DownloadComplete_Test
attr title  "Descargas completas (prueba), vector"
vector 41  BasicTopology.peer[20].bitTorrentApp.bitTorrentClient  DownloadComplete_Test:vector  ETV
attr source  BitTorrentClient_DownloadComplete_Test
attr title  "Descargas completas (prueba), vector"
vector 43  BasicTopology.peer[21].bitTorrentApp.bitTorrentClient  DownloadComplete_Test:vector  ETV
attr source  BitTorrentClient_DownloadComplete_Test
attr title  "Descargas completas (prueba), vector"
vector 45  BasicTopology.peer[22].bitTorrentApp.bitTorrentClient  DownloadComplete_Test:vector  ETV
attr source  BitTorrentClient_DownloadComplete_Test
attr title  "Descargas completas (prueba), vector"
vector 47  BasicTopology.peer[23].bitTorrentApp.bitTorrentClient  DownloadComplete_Test:vector  ETV
attr source  BitTorrentClient_DownloadComplete_Test
attr title  "Descargas completas (prueba), vector"
vector 49  BasicTopology.peer[24].bitTorrentApp.bitTorrentClient  DownloadComplete_Test:vector  ETV
attr source  BitTorrentClient_DownloadComplete_Test
attr title  "Descargas completas (prueba), vector"
vector 833  BasicTopology.peer[0].bitTorrentApp.bitTorrentClient.contentManager_26  TotalBytesUploaded:vector  ETV
attr source  ContentManager_TotalBytesUploaded
attr title  "Total of Bytes Uploaded, vector"
attr unit  B
vector 896  BasicTopology.peer[8].bitTorrentApp.bitTorrentClient.contentManager_26  TotalBytesDownloaded:vector  ETV
attr source  ContentManager_TotalBytesDownloaded
attr title  "Total of Bytes Downloaded, vector"
attr unit  B
vector 1000  BasicTopology.peer[21].bitTorrentApp.bitTorrentClient.contentManager_26  TotalBytesDownloaded:vector  ETV
attr source  ContentManager_TotalBytesDownloaded
attr title  "Total of Bytes Downloaded, vector"
attr unit  B
vector 920  BasicTopology.peer[11].bitTorrentApp.bitTorrentClient.contentManager_26  TotalBytesDownloaded:vector  ETV
attr source  ContentManager_TotalBytesDownloaded
attr title  "Total of Bytes Downloaded, vector"
attr unit  B
vector 999  BasicTopology.peer[21].bitTorrentApp.bitTorrentClient.contentManager_26  PiecesDownloaded:vector  ETV
attr source  ContentManager_PieceDownloaded
attr title  "Pieces Downloaded, vector"
vector 1001  BasicTopology.peer[21].bitTorrentApp.bitTorrentClient.contentManager_26  TotalBytesUploaded:vector  ETV
attr source  ContentManager_TotalBytesUploaded
attr title  "Total of Bytes Uploaded, vector"
attr unit  B
vector 840  BasicTopology.peer[1].bitTorrentApp.bitTorrentClient.contentManager_26  TotalBytesDownloaded:vector  ETV
attr source  ContentManager_TotalBytesDownloaded
attr title  "Total of Bytes Downloaded, vector"
attr unit  B
vector 848  BasicTopology.peer[2].bitTorrentApp.bitTorrentClient.contentManager_26  TotalBytesDownloaded:vector  ETV
attr source  ContentManager_TotalBytesDownloaded
attr title  "Total of Bytes Downloaded, vector"
attr unit  B
vector 936  BasicTopology.peer[13].bitTorrentApp.bitTorrentClient.contentManager_26  TotalBytesDownloaded:vector  ETV
attr source  ContentManager_TotalBytesDownloaded
attr title  "Total of Bytes Downloaded, vector"
attr unit  B
vector 872  BasicTopology.peer[5].bitTorrentApp.bitTorrentClient.contentManager_26  TotalBytesDownloaded:vector  ETV
attr source  ContentManager_TotalBytesDownloaded
attr title  "Total of Bytes Downloaded, vector"
attr unit  B
vector 1016  BasicTopology.peer[23].bitTorrentApp.bitTorrentClient.contentManager_26  TotalBytesDownloaded:vector  ETV
attr source  ContentManager_TotalBytesDownloaded
attr title  "Total of Bytes Downloaded, vector"
attr unit  B
vector 847  BasicTopology.peer[2].bitTorrentApp.bitTorrentClient.contentManager_26  PiecesDownloaded:vector  ETV
attr source  ContentManager_PieceDownloaded
attr title  "Pieces Downloaded, vector"
vector 849  BasicTopology.peer[2].bitTorrentApp.bitTorrentClient.contentManager_26  TotalBytesUploaded:vector  ETV
attr source  ContentManager_TotalBytesUploaded
attr title  "Total of Bytes Uploaded, vector"
attr unit  B
vector 1024  BasicTopology.peer[24].bitTorrentApp.bitTorrentClient.contentManager_26  TotalBytesDownloaded:vector  ETV
attr source  ContentManager_TotalBytesDownloaded
attr title  "Total of Bytes Downloaded, vector"
attr unit  B
vector 895  BasicTopology.peer[8].bitTorrentApp.bitTorrentClient.contentManager_26  PiecesDownloaded:vector  ETV
attr source  ContentManager_PieceDownloaded
attr title  "Pieces Downloaded, vector"
vector 897  BasicTopology.peer[8].bitTorrentApp.bitTorrentClient.contentManager_26  TotalBytesUploaded:vector  ETV
attr source  ContentManager_TotalBytesUploaded
attr title  "Total of Bytes Uploaded, vector"
attr unit  B
vector 952  BasicTopology.peer[15].bitTorrentApp.bitTorrentClient.contentManager_26  TotalBytesDownloaded:vector  ETV
attr source  ContentManager_TotalBytesDownloaded
attr title  "Total of Bytes Downloaded, vector"
attr unit  B
vector 856  BasicTopology.peer[3].bitTorrentApp.bitTorrentClient.contentManager_26  TotalBytesDownloaded:vector  ETV
attr source  ContentManager_TotalBytesDownloaded
attr title  "Total of Bytes Downloaded, vector"
attr unit  B
vector 1008  BasicTopology.peer[22].bitTorrentApp.bitTorrentClient.contentManager_26  TotalBytesDownloaded:vector  ETV
attr source  ContentManager_TotalBytesDownloaded
attr title  "Total of Bytes Downloaded, vector"
attr unit  B
vector 904  BasicTopology.peer[9].bitTorrentApp.bitTorrentClient.contentManager_26  TotalBytesDownloaded:vector  ETV
attr source  ContentManager_TotalBytesDownloaded
attr title  "Total of Bytes Downloaded, vector"
attr unit  B
vector 976  BasicTopology.peer[18].bitTorrentApp.bitTorrentClient.contentManager_26  TotalBytesDownloaded:vector  ETV
attr source  ContentManager_TotalBytesDownloaded
attr title  "Total of Bytes Downloaded, vector"
attr unit  B
vector 864  BasicTopology.peer[4].bitTorrentApp.bitTorrentClient.contentManager_26  TotalBytesDownloaded:vector  ETV
attr source  ContentManager_TotalBytesDownloaded
attr title  "Total of Bytes Downloaded, vector"
attr unit  B
vector 1023  BasicTopology.peer[24].bitTorrentApp.bitTorrentClient.contentManager_26  PiecesDownloaded:vector  ETV
attr source  ContentManager_PieceDownloaded
attr title  "Pieces Downloaded, vector"
vector 1025  BasicTopology.peer[24].bitTorrentApp.bitTorrentClient.contentManager_26  TotalBytesUploaded:vector  ETV
attr source  ContentManager_TotalBytesUploaded
attr title  "Total of Bytes Uploaded, vector"
attr unit  B
vector 888  BasicTopology.peer[7].bitTorrentApp.bitTorrentClient.contentManager_26  TotalBytesDownloaded:vector  ETV
attr source  ContentManager_TotalBytesDownloaded
attr title  "Total of Bytes Downloaded, vector"
attr unit  B
vector 903  BasicTopology.peer[9].bitTorrentApp.bitTorrentClient.contentManager_26  PiecesDownloaded:vector  ETV
attr source  ContentManager_PieceDownloaded
attr title  "Pieces Downloaded, vector"
vector 905  BasicTopology.peer[9].bitTorrentApp.bitTorrentClient.contentManager_26  TotalBytesUploaded:vector  ETV
attr source  ContentManager_TotalBytesUploaded
attr title  "Total of Bytes Uploaded, vector"
attr unit  B
vector 944  BasicTopology.peer[14].bitTorrentApp.bitTorrentClient.contentManager_26  TotalBytesDownloaded:vector  ETV
attr source  ContentManager_TotalBytesDownloaded
attr title  "Total of Bytes Downloaded, vector"
attr unit  B
vector 992  BasicTopology.peer[20].bitTorrentApp.bitTorrentClient.contentManager_26  TotalBytesDownloaded:vector  ETV
attr source  ContentManager_TotalBytesDownloaded
attr title  "Total of Bytes Downloaded, vector"
attr unit  B
vector 1015  BasicTopology.peer[23].bitTorrentApp.bitTorrentClient.contentManager_26  PiecesDownloaded:vector  ETV
attr source  ContentManager_PieceDownloaded
attr title  "Pieces Downloaded, vector"
vector 1017  BasicTopology.peer[23].bitTorrentApp.bitTorrentClient.contentManager_26  TotalBytesUploaded:vector  ETV
attr source  ContentManager_TotalBytesUploaded
attr title  "Total of Bytes Uploaded, vector"
attr unit  B
vector 975  BasicTopology.peer[18].bitTorrentApp.bitTorrentClient.contentManager_26  PiecesDownloaded:vector  ETV
attr source  ContentManager_PieceDownloaded
attr title  "Pieces Downloaded, vector"
vector 977  BasicTopology.peer[18].bitTorrentApp.bitTorrentClient.contentManager_26  TotalBytesUploaded:vector  ETV
attr source  ContentManager_TotalBytesUploaded
attr title  "Total of Bytes Uploaded, vector"
attr unit  B
vector 960  BasicTopology.peer[16].bitTorrentApp.bitTorrentClient.contentManager_26  TotalBytesDownloaded:vector  ETV
attr source  ContentManager_TotalBytesDownloaded
attr title  "Total of Bytes Downloaded, vector"
attr unit  B
vector 880  BasicTopology.peer[6].bitTorrentApp.bitTorrentClient.contentManager_26  TotalBytesDownloaded:vector  ETV
attr source  ContentManager_TotalBytesDownloaded
attr title  "Total of Bytes Downloaded, vector"
attr unit  B
vector 928  BasicTopology.peer[12].bitTorrentApp.bitTorrentClient.contentManager_26  TotalBytesDownloaded:vector  ETV
attr source  ContentManager_TotalBytesDownloaded
attr title  "Total of Bytes Downloaded, vector"
attr unit  B
vector 912  BasicTopology.peer[10].bitTorrentApp.bitTorrentClient.contentManager_26  TotalBytesDownloaded:vector  ETV
attr source  ContentManager_TotalBytesDownloaded
attr title  "Total of Bytes Downloaded, vector"
attr unit  B
vector 991  BasicTopology.peer[20].bitTorrentApp.bitTorrentClient.contentManager_26  PiecesDownloaded:vector  ETV
attr source  ContentManager_PieceDownloaded
attr title  "Pieces Downloaded, vector"
vector 984  BasicTopology.peer[19].bitTorrentApp.bitTorrentClient.contentManager_26  TotalBytesDownloaded:vector  ETV
attr source  ContentManager_TotalBytesDownloaded
attr title  "Total of Bytes Downloaded, vector"
attr unit  B
vector 879  BasicTopology.peer[6].bitTorrentApp.bitTorrentClient.contentManager_26  PiecesDownloaded:vector  ETV
attr source  ContentManager_PieceDownloaded
attr title  "Pieces Downloaded, vector"
vector 993  BasicTopology.peer[20].bitTorrentApp.bitTorrentClient.contentManager_26  TotalBytesUploaded:vector  ETV
attr source  ContentManager_TotalBytesUploaded
attr title  "Total of Bytes Uploaded, vector"
attr unit  B
vector 968  BasicTopology.peer[17].bitTorrentApp.bitTorrentClient.contentManager_26  TotalBytesDownloaded:vector  ETV
attr source  ContentManager_TotalBytesDownloaded
attr title  "Total of Bytes Downloaded, vector"
attr unit  B
vector 911  BasicTopology.peer[10].bitTorrentApp.bitTorrentClient.contentManager_26  PiecesDownloaded:vector  ETV
attr source  ContentManager_PieceDownloaded
attr title  "Pieces Downloaded, vector"
vector 959  BasicTopology.peer[16].bitTorrentApp.bitTorrentClient.contentManager_26  PiecesDownloaded:vector  ETV
attr source  ContentManager_PieceDownloaded
attr title  "Pieces Downloaded, vector"
vector 839  BasicTopology.peer[1].bitTorrentApp.bitTorrentClient.contentManager_26  PiecesDownloaded:vector  ETV
attr source  ContentManager_PieceDownloaded
attr title  "Pieces Downloaded, vector"
vector 841  BasicTopology.peer[1].bitTorrentApp.bitTorrentClient.contentManager_26  TotalBytesUploaded:vector  ETV
attr source  ContentManager_TotalBytesUploaded
attr title  "Total of Bytes Uploaded, vector"
attr unit  B
vector 983  BasicTopology.peer[19].bitTorrentApp.bitTorrentClient.contentManager_26  PiecesDownloaded:vector  ETV
attr source  ContentManager_PieceDownloaded
attr title  "Pieces Downloaded, vector"
vector 871  BasicTopology.peer[5].bitTorrentApp.bitTorrentClient.contentManager_26  PiecesDownloaded:vector  ETV
attr source  ContentManager_PieceDownloaded
attr title  "Pieces Downloaded, vector"
vector 855  BasicTopology.peer[3].bitTorrentApp.bitTorrentClient.contentManager_26  PiecesDownloaded:vector  ETV
attr source  ContentManager_PieceDownloaded
attr title  "Pieces Downloaded, vector"
vector 967  BasicTopology.peer[17].bitTorrentApp.bitTorrentClient.contentManager_26  PiecesDownloaded:vector  ETV
attr source  ContentManager_PieceDownloaded
attr title  "Pieces Downloaded, vector"
vector 951  BasicTopology.peer[15].bitTorrentApp.bitTorrentClient.contentManager_26  PiecesDownloaded:vector  ETV
attr source  ContentManager_PieceDownloaded
attr title  "Pieces Downloaded, vector"
vector 863  BasicTopology.peer[4].bitTorrentApp.bitTorrentClient.contentManager_26  PiecesDownloaded:vector  ETV
attr source  ContentManager_PieceDownloaded
attr title  "Pieces Downloaded, vector"
vector 881  BasicTopology.peer[6].bitTorrentApp.bitTorrentClient.contentManager_26  TotalBytesUploaded:vector  ETV
attr source  ContentManager_TotalBytesUploaded
attr title  "Total of Bytes Uploaded, vector"
attr unit  B
vector 943  BasicTopology.peer[14].bitTorrentApp.bitTorrentClient.contentManager_26  PiecesDownloaded:vector  ETV
attr source  ContentManager_PieceDownloaded
attr title  "Pieces Downloaded, vector"
vector 927  BasicTopology.peer[12].bitTorrentApp.bitTorrentClient.contentManager_26  PiecesDownloaded:vector  ETV
attr source  ContentManager_PieceDownloaded
attr title  "Pieces Downloaded, vector"
vector 913  BasicTopology.peer[10].bitTorrentApp.bitTorrentClient.contentManager_26  TotalBytesUploaded:vector  ETV
attr source  ContentManager_TotalBytesUploaded
attr title  "Total of Bytes Uploaded, vector"
attr unit  B
vector 945  BasicTopology.peer[14].bitTorrentApp.bitTorrentClient.contentManager_26  TotalBytesUploaded:vector  ETV
attr source  ContentManager_TotalBytesUploaded
attr title  "Total of Bytes Uploaded, vector"
attr unit  B
vector 887  BasicTopology.peer[7].bitTorrentApp.bitTorrentClient.contentManager_26  PiecesDownloaded:vector  ETV
attr source  ContentManager_PieceDownloaded
attr title  "Pieces Downloaded, vector"
vector 961  BasicTopology.peer[16].bitTorrentApp.bitTorrentClient.contentManager_26  TotalBytesUploaded:vector  ETV
attr source  ContentManager_TotalBytesUploaded
attr title  "Total of Bytes Uploaded, vector"
attr unit  B
vector 1007  BasicTopology.peer[22].bitTorrentApp.bitTorrentClient.contentManager_26  PiecesDownloaded:vector  ETV
attr source  ContentManager_PieceDownloaded
attr title  "Pieces Downloaded, vector"
vector 919  BasicTopology.peer[11].bitTorrentApp.bitTorrentClient.contentManager_26  PiecesDownloaded:vector  ETV
attr source  ContentManager_PieceDownloaded
attr title  "Pieces Downloaded, vector"
vector 921  BasicTopology.peer[11].bitTorrentApp.bitTorrentClient.contentManager_26  TotalBytesUploaded:vector  ETV
attr source  ContentManager_TotalBytesUploaded
attr title  "Total of Bytes Uploaded, vector"
attr unit  B
vector 929  BasicTopology.peer[12].bitTorrentApp.bitTorrentClient.contentManager_26  TotalBytesUploaded:vector  ETV
attr source  ContentManager_TotalBytesUploaded
attr title  "Total of Bytes Uploaded, vector"
attr unit  B
vector 935  BasicTopology.peer[13].bitTorrentApp.bitTorrentClient.contentManager_26  PiecesDownloaded:vector  ETV
attr source  ContentManager_PieceDownloaded
attr title  "Pieces Downloaded, vector"
vector 937  BasicTopology.peer[13].bitTorrentApp.bitTorrentClient.contentManager_26  TotalBytesUploaded:vector  ETV
attr source  ContentManager_TotalBytesUploaded
attr title  "Total of Bytes Uploaded, vector"
attr unit  B
vector 873  BasicTopology.peer[5].bitTorrentApp.bitTorrentClient.contentManager_26  TotalBytesUploaded:vector  ETV
attr source  ContentManager_TotalBytesUploaded
attr title  "Total of Bytes Uploaded, vector"
attr unit  B
vector 857  BasicTopology.peer[3].bitTorrentApp.bitTorrentClient.contentManager_26  TotalBytesUploaded:vector  ETV
attr source  ContentManager_TotalBytesUploaded
attr title  "Total of Bytes Uploaded, vector"
attr unit  B
vector 889  BasicTopology.peer[7].bitTorrentApp.bitTorrentClient.contentManager_26  TotalBytesUploaded:vector  ETV
attr source  ContentManager_TotalBytesUploaded
attr title  "Total of Bytes Uploaded, vector"
attr unit  B
vector 865  BasicTopology.peer[4].bitTorrentApp.bitTorrentClient.contentManager_26  TotalBytesUploaded:vector  ETV
attr source  ContentManager_TotalBytesUploaded
attr title  "Total of Bytes Uploaded, vector"
attr unit  B
vector 1009  BasicTopology.peer[22].bitTorrentApp.bitTorrentClient.contentManager_26  TotalBytesUploaded:vector  ETV
attr source  ContentManager_TotalBytesUploaded
attr title  "Total of Bytes Uploaded, vector"
attr unit  B
vector 969  BasicTopology.peer[17].bitTorrentApp.bitTorrentClient.contentManager_26  TotalBytesUploaded:vector  ETV
attr source  ContentManager_TotalBytesUploaded
attr title  "Total of Bytes Uploaded, vector"
attr unit  B
3	85	36001	36001
3	50594413	36084.378635199123	36084.378635199
5	86	36001	36001
5	83180116	36147.062249931567	36147.062249932
7	87	36001	36001
7	63233173	36107.58430111603	36107.584301116
9	88	36001	36001
9	89456423	36164.970089082088	36164.970089082
11	89	36001	36001
11	90759248	36172.797200638869	36172.797200639
13	90	36001	36001
13	86772593	36155.365493213331	36155.365493213
15	91	36001	36001
15	90981838	36175.351534868255	36175.351534868
17	92	36001	36001
17	85942796	36153.476571435732	36153.476571436
19	93	36001	36001
19	83874507	36148.651762530983	36148.651762531
21	94	36001	36001
21	62051897	36105.361127403734	36105.361127404
23	95	36001	36001
23	86994097	36155.950660040577	36155.950660041
25	96	36001	36001
25	90574709	36171.009597493026	36171.009597493
27	97	36001	36001
27	91450354	36177.559306444552	36177.559306445
29	98	36001	36001
29	89260762	36164.411770988186	36164.411770988
31	99	36001	36001
31	83785930	36148.493004472804	36148.493004473
33	100	36001	36001
33	87081555	36156.77631983732	36156.776319837
35	101	36001	36001
35	87870268	36159.508349700529	36159.508349701
37	102	36001	36001
37	86706637	36155.232981826419	36155.232981826
39	103	36001	36001
39	85513627	36152.481803216169	36152.481803216
41	104	36001	36001
41	88313721	36160.319777671731	36160.319777672
43	105	36001	36001
43	40854996	36067.730517741731	36067.730517742
45	106	36001	36001
45	59133194	36099.856359275726	36099.856359276
47	107	36001	36001
47	59268793	36100.103738943728	36100.103738944
49	108	36001	36001
49	52232770	36087.438979993461	36087.438979993
833	365806	36002.084248569272	32768
833	369906	36002.096047560202	65536
833	373855	36002.109216462298	98304
833	374709	36002.112377321356	131072
833	375091	36002.11381358017	163840
833	375372	36002.114832490058	196608
833	375775	36002.116412669264	229376
833	376025	36002.116899048815	262144
833	378516	36002.123033156321	294912
833	381754	36002.128354388328	327680
833	385715	36002.137243568112	360448
833	387976	36002.151335401345	393216
833	388002	36002.163806053957	425984
833	388004	36002.165893084113	458752
833	388007	36002.167247104374	491520
833	388009	36002.173569158574	524288
833	388011	36002.17818608768	557056
833	388037	36002.191668166815	589824
833	388039	36002.192707556305	622592
833	388105	36002.211614668451	655360
833	478675	36002.652892404103	688128
833	478883	36002.653604973243	720896
833	481021	36002.657679458369	753664
833	489476	36002.673152980285	786432
833	489972	36002.674329119029	819200
833	499883	36002.693451327442	851968
833	500452	36002.694283502652	884736
833	500865	36002.694973613435	917504
833	503583	36002.700436917	950272
833	505036	36002.7036965759	983040
833	556788	36002.812621202164	1015808
833	630761	36002.965480064875	1048576
833	673698	36003.52569179043	1081344
833	690675	36003.593857691239	1114112
833	715078	36003.767067592993	1146880
833	741678	36003.877796780896	1179648
833	767556	36003.983782979319	1212416
833	842911	36004.055613654767	1245184
833	854945	36004.068566805388	1277952
833	859371	36004.073345756357	1310720
833	871444	36004.086079711703	1343488
833	875785	36004.089957142541	1376256
833	888976	36004.10334356075	1409024
833	899281	36004.114917415668	1441792
833	919638	36004.13825084	1474560
833	942426	36004.160913916985	1507328
833	943430	36004.16174002534	1540096
833	965841	36004.187172597725	1572864
833	966320	36004.187702179054	1605632
833	971892	36004.19730849323	1638400
833	972020	36004.197568878845	1671168
833	972537	36004.198688859485	1703936
833	974258	36004.205522681877	1736704
833	976419	36004.231820935253	1769472
833	976760	36004.243168743477	1802240
833	976914	36004.24721492256	1835008
833	977084	36004.247875689617	1867776
833	977086	36004.2479252374	1900544
833	977822	36004.250352604353	1933312
833	984041	36004.270833593844	1966080
833	987127	36004.280221773085	1998848
833	987269	36004.280780356418	2031616
833	987474	36004.281309251096	2064384
833	987570	36004.28166985183	2097152
833	990214	36004.290345127183	2129920
833	990232	36004.290363230725	2162688
833	990460	36004.291031230017	2195456
833	1050370	36004.563066186147	2228224
833	1055671	36004.569092582206	2260992
833	1070196	36004.586892935653	2293760
833	1070947	36004.588332888787	2326528
833	1076742	36004.605394949723	2359296
833	1076823	36004.605991398843	2392064
833	1083587	36004.626563257154	2424832
833	1083793	36004.627545253219	2457600
833	1084247	36004.629276327217	2490368
833	1089904	36004.64241030949	2523136
833	1100018	36004.664965754392	2555904
833	1123621	36004.728931358464	2588672
833	1141699	36004.784957298515	2621440
833	1156749	36004.84257808441	2654208
833	1177055	36004.917798150184	2686976
833	1211796	36005.00534855565	2719744
833	1297931	36005.15589391225	2752512
833	1305608	36005.178127104265	2785280
833	1352823	36005.656584225835	2818048
833	1369170	36005.718096992618	2850816
833	1382316	36005.761771545735	2883584
833	1414700	36005.879083034843	2916352
833	1439382	36005.956409071753	2949120
833	1466085	36006.039182324293	2981888
833	1491621	36006.116276881789	3014656
833	1525794	36006.21697409135	3047424
833	1534523	36006.242968092958	3080192
833	1540891	36006.265633741487	3112960
833	1554800	36006.31847440332	3145728
833	1570701	36006.37699330572	3178496
833	1588011	36006.446443026693	3211264
833	1606066	36006.513099606482	3244032
833	1685996	36006.806842346653	3276800
833	1713401	36006.880736584194	3309568
833	1729797	36006.941143021555	3342336
833	1765289	36007.028591270078	3375104
833	1830719	36007.110470163993	3407872
833	1878245	36007.194343897218	3440640
833	1942664	36007.314570368667	3473408
833	2067998	36007.492699258901	3506176
833	2138236	36007.587081105446	3538944
833	2254776	36007.747403693205	3571712
833	2345784	36007.911339801252	3604480
833	2476725	36008.127796012639	3637248
833	2607002	36008.356102709301	3670016
833	2646570	36008.423700414097	3702784
833	2681889	36008.759206557243	3735552
833	2814901	36009.247617159445	3768320
833	2953797	36009.493435083773	3801088
833	3051991	36009.658365928604	3833856
833	3052500	36009.659279073733	3866624
833	3138157	36009.828251011906	3899392
833	3448690	36010.375453959567	3932160
833	3498159	36010.465185017822	3964928
833	3528148	36010.540885181502	3997696
833	3549529	36010.575822582402	4030464
833	3608713	36010.663540726297	4063232
833	3695164	36010.785426252689	4096000
833	3735298	36010.854807659105	4128768
833	4026851	36011.347806376923	4161536
833	4172266	36011.558524774203	4194304
833	4325139	36011.782891979472	4227072
833	4419953	36011.957284551238	4259840
833	4448616	36012.004886390679	4292608
833	4480356	36012.04483747182	4325376
833	4579997	36012.175111051468	4358144
833	4640375	36012.25399538225	4390912
833	4688505	36012.331577679907	4423680
833	4749634	36012.414833662064	4456448
833	4809933	36012.492282883971	4489216
833	5017493	36012.816954616958	4521984
833	5082332	36012.941041237857	4554752
833	5155986	36013.060268970036	4587520
833	5878147	36014.36320045259	4620288
833	6397120	36015.135283518028	4653056
833	6671170	36015.645669434544	4685824
833	7014113	36016.238485044313	4718592
833	7051101	36016.300236593896	4751360
833	7098408	36016.371185516969	4784128
833	7203445	36016.548648215479	4816896
833	7250129	36016.624418815467	4849664
833	7354806	36016.873913771891	4882432
833	7919521	36017.756309018079	4915200
833	8362250	36018.418211144858	4947968
833	8601839	36018.837260380901	4980736
833	9031988	36019.499815900501	5013504
833	9435155	36020.06666012952	5046272
833	9495418	36020.153570881043	5079040
833	9829076	36020.635644756229	5111808
833	9942911	36020.796063137181	5144576
833	10015130	36020.901123935956	5177344
833	10240767	36021.25465854042	5210112
833	10739876	36021.947108278619	5242880
833	11588646	36023.046642108294	5275648
833	11596432	36023.055757833229	5308416
833	11676688	36023.184088914251	5341184
833	11728054	36023.27037926808	5373952
833	12299506	36024.206586549962	5406720
833	12390767	36024.337006167646	5439488
833	12417408	36024.370009383262	5472256
833	12456186	36024.412934145128	5505024
833	12535979	36024.502844043917	5537792
833	12588160	36024.558005855953	5570560
833	12639961	36024.63458390836	5603328
833	12686048	36024.708375721308	5636096
833	12948413	36025.076866252398	5668864
833	13025133	36025.156465035175	5701632
833	13109000	36025.257932073039	5734400
833	13194232	36025.348803279719	5767168
833	13362816	36025.563515643702	5799936
833	13435928	36025.652634237672	5832704
833	13491741	36025.719468412163	5865472
833	13580937	36025.822451874408	5898240
833	13592358	36025.834663627201	5931008
833	13638309	36025.884973152052	5963776
833	13705083	36025.966328209385	5996544
833	13753281	36026.022142678989	6029312
833	14047626	36026.422884376988	6062080
833	14123008	36026.524741407117	6094848
833	14182537	36026.604252051926	6127616
833	14494851	36026.983163022066	6160384
833	15042476	36027.760042016441	6193152
833	15076954	36027.801514181567	6225920
833	15106921	36027.832683722829	6258688
833	15154279	36027.887308686343	6291456
833	15299344	36028.105611091171	6324224
833	15377838	36028.210837412559	6356992
833	15444441	36028.307971628138	6389760
833	15482641	36028.365372840681	6422528
833	15857135	36028.987376142087	6455296
833	15959580	36029.142552235101	6488064
833	16009699	36029.2162300718	6520832
833	16177507	36029.478191464969	6553600
833	16253377	36029.59130270062	6586368
833	16558631	36030.002444436952	6619136
833	16667473	36030.149255094633	6651904