version 2
run Test-7-20200424-20:17:32-7724
attr configname Test
attr datetime 20200424-20:17:32
attr experiment "\"Simulation Test\""
attr inifile BasicConfig.ini
attr iterationvars ""
attr iterationvars2 $repetition=7
attr measurement "\"Peers: $peers, Rate: $rate\""
attr network BasicTopology
attr processid 7724
attr repetition 7
attr replication #7
attr resultdir results
attr runnumber 7
attr seedset 7

vector 3  BasicTopology.peer[1].bitTorrentApp.bitTorrentClient  DownloadComplete_Test:vector  ETV
attr source  BitTorrentClient_DownloadComplete_Test
attr title  "Descargas completas (prueba), vector"
vector 5  BasicTopology.peer[2].bitTorrentApp.bitTorrentClient  DownloadComplete_Test:vector  ETV
attr source  BitTorrentClient_DownloadComplete_Test
attr title  "Descargas completas (prueba), vector"
vector 7  BasicTopology.peer[3].bitTorrentApp.bitTorrentClient  DownloadComplete_Test:vector  ETV
attr source  BitTorrentClient_DownloadComplete_Test
attr title  "Descargas completas (prueba), vector"
vector 9  BasicTopology.peer[4].bitTorrentApp.bitTorrentClient  DownloadComplete_Test:vector  ETV
attr source  BitTorrentClient_DownloadComplete_Test
attr title  "Descargas completas (prueba), vector"
vector 11  BasicTopology.peer[5].bitTorrentApp.bitTorrentClient  DownloadComplete_Test:vector  ETV
attr source  BitTorrentClient_DownloadComplete_Test
attr title  "Descargas completas (prueba), vector"
vector 13  BasicTopology.peer[6].bitTorrentApp.bitTorrentClient  DownloadComplete_Test:vector  ETV
attr source  BitTorrentClient_DownloadComplete_Test
attr title  "Descargas completas (prueba), vector"
vector 15  BasicTopology.peer[7].bitTorrentApp.bitTorrentClient  DownloadComplete_Test:vector  ETV
attr source  BitTorrentClient_DownloadComplete_Test
attr title  "Descargas completas (prueba), vector"
vector 17  BasicTopology.peer[8].bitTorrentApp.bitTorrentClient  DownloadComplete_Test:vector  ETV
attr source  BitTorrentClient_DownloadComplete_Test
attr title  "Descargas completas (prueba), vector"
vector 19  BasicTopology.peer[9].bitTorrentApp.bitTorrentClient  DownloadComplete_Test:vector  ETV
attr source  BitTorrentClient_DownloadComplete_Test
attr title  "Descargas completas (prueba), vector"
vector 21  BasicTopology.peer[10].bitTorrentApp.bitTorrentClient  DownloadComplete_Test:vector  ETV
attr source  BitTorrentClient_DownloadComplete_Test
attr title  "Descargas completas (prueba), vector"
vector 23  BasicTopology.peer[11].bitTorrentApp.bitTorrentClient  DownloadComplete_Test:vector  ETV
attr source  BitTorrentClient_DownloadComplete_Test
attr title  "Descargas completas (prueba), vector"
vector 25  BasicTopology.peer[12].bitTorrentApp.bitTorrentClient  DownloadComplete_Test:vector  ETV
attr source  BitTorrentClient_DownloadComplete_Test
attr title  "Descargas completas (prueba), vector"
vector 27  BasicTopology.peer[13].bitTorrentApp.bitTorrentClient  DownloadComplete_Test:vector  ETV
attr source  BitTorrentClient_DownloadComplete_Test
attr title  "Descargas completas (prueba), vector"
vector 29  BasicTopology.peer[14].bitTorrentApp.bitTorrentClient  DownloadComplete_Test:vector  ETV
attr source  BitTorrentClient_DownloadComplete_Test
attr title  "Descargas completas (prueba), vector"
vector 31  BasicTopology.peer[15].bitTorrentApp.bitTorrentClient  DownloadComplete_Test:vector  ETV
attr source  BitTorrentClient_DownloadComplete_Test
attr title  "Descargas completas (prueba), vector"
vector 33  BasicTopology.peer[16].bitTorrentApp.bitTorrentClient  DownloadComplete_Test:vector  ETV
attr source  BitTorrentClient_DownloadComplete_Test
attr title  "Descargas completas (prueba), vector"
vector 35  BasicTopology.peer[17].bitTorrentApp.bitTorrentClient  DownloadComplete_Test:vector  ETV
attr source  BitTorrentClient_DownloadComplete_Test
attr title  "Descargas completas (prueba), vector"
vector 37  BasicTopology.peer[18].bitTorrentApp.bitTorrentClient  DownloadComplete_Test:vector  ETV
attr source  BitTorrentClient_DownloadComplete_Test
attr title  "Descargas completas (prueba), vector"
vector 39  BasicTopology.peer[19].bitTorrentApp.bitTorrentClient  DownloadComplete_Test:vector  ETV
attr source  BitTorrentClient_DownloadComplete_Test
attr title  "Descargas completas (prueba), vector"
vector 41  BasicTopology.peer[20].bitTorrentApp.bitTorrentClient  DownloadComplete_Test:vector  ETV
attr source  BitTorrentClient_DownloadComplete_Test
attr title  "Descargas completas (prueba), vector"
vector 43  BasicTopology.peer[21].bitTorrentApp.bitTorrentClient  DownloadComplete_Test:vector  ETV
attr source  BitTorrentClient_DownloadComplete_Test
attr title  "Descargas completas (prueba), vector"
vector 45  BasicTopology.peer[22].bitTorrentApp.bitTorrentClient  DownloadComplete_Test:vector  ETV
attr source  BitTorrentClient_DownloadComplete_Test
attr title  "Descargas completas (prueba), vector"
vector 47  BasicTopology.peer[23].bitTorrentApp.bitTorrentClient  DownloadComplete_Test:vector  ETV
attr source  BitTorrentClient_DownloadComplete_Test
attr title  "Descargas completas (prueba), vector"
vector 49  BasicTopology.peer[24].bitTorrentApp.bitTorrentClient  DownloadComplete_Test:vector  ETV
attr source  BitTorrentClient_DownloadComplete_Test
attr title  "Descargas completas (prueba), vector"
vector 833  BasicTopology.peer[0].bitTorrentApp.bitTorrentClient.contentManager_26  TotalBytesUploaded:vector  ETV
attr source  ContentManager_TotalBytesUploaded
attr title  "Total of Bytes Uploaded, vector"
attr unit  B
vector 992  BasicTopology.peer[20].bitTorrentApp.bitTorrentClient.contentManager_26  TotalBytesDownloaded:vector  ETV
attr source  ContentManager_TotalBytesDownloaded
attr title  "Total of Bytes Downloaded, vector"
attr unit  B
vector 991  BasicTopology.peer[20].bitTorrentApp.bitTorrentClient.contentManager_26  PiecesDownloaded:vector  ETV
attr source  ContentManager_PieceDownloaded
attr title  "Pieces Downloaded, vector"
vector 993  BasicTopology.peer[20].bitTorrentApp.bitTorrentClient.contentManager_26  TotalBytesUploaded:vector  ETV
attr source  ContentManager_TotalBytesUploaded
attr title  "Total of Bytes Uploaded, vector"
attr unit  B
vector 840  BasicTopology.peer[1].bitTorrentApp.bitTorrentClient.contentManager_26  TotalBytesDownloaded:vector  ETV
attr source  ContentManager_TotalBytesDownloaded
attr title  "Total of Bytes Downloaded, vector"
attr unit  B
vector 944  BasicTopology.peer[14].bitTorrentApp.bitTorrentClient.contentManager_26  TotalBytesDownloaded:vector  ETV
attr source  ContentManager_TotalBytesDownloaded
attr title  "Total of Bytes Downloaded, vector"
attr unit  B
vector 1008  BasicTopology.peer[22].bitTorrentApp.bitTorrentClient.contentManager_26  TotalBytesDownloaded:vector  ETV
attr source  ContentManager_TotalBytesDownloaded
attr title  "Total of Bytes Downloaded, vector"
attr unit  B
vector 1016  BasicTopology.peer[23].bitTorrentApp.bitTorrentClient.contentManager_26  TotalBytesDownloaded:vector  ETV
attr source  ContentManager_TotalBytesDownloaded
attr title  "Total of Bytes Downloaded, vector"
attr unit  B
vector 839  BasicTopology.peer[1].bitTorrentApp.bitTorrentClient.contentManager_26  PiecesDownloaded:vector  ETV
attr source  ContentManager_PieceDownloaded
attr title  "Pieces Downloaded, vector"
vector 841  BasicTopology.peer[1].bitTorrentApp.bitTorrentClient.contentManager_26  TotalBytesUploaded:vector  ETV
attr source  ContentManager_TotalBytesUploaded
attr title  "Total of Bytes Uploaded, vector"
attr unit  B
vector 904  BasicTopology.peer[9].bitTorrentApp.bitTorrentClient.contentManager_26  TotalBytesDownloaded:vector  ETV
attr source  ContentManager_TotalBytesDownloaded
attr title  "Total of Bytes Downloaded, vector"
attr unit  B
vector 1007  BasicTopology.peer[22].bitTorrentApp.bitTorrentClient.contentManager_26  PiecesDownloaded:vector  ETV
attr source  ContentManager_PieceDownloaded
attr title  "Pieces Downloaded, vector"
vector 1009  BasicTopology.peer[22].bitTorrentApp.bitTorrentClient.contentManager_26  TotalBytesUploaded:vector  ETV
attr source  ContentManager_TotalBytesUploaded
attr title  "Total of Bytes Uploaded, vector"
attr unit  B
vector 920  BasicTopology.peer[11].bitTorrentApp.bitTorrentClient.contentManager_26  TotalBytesDownloaded:vector  ETV
attr source  ContentManager_TotalBytesDownloaded
attr title  "Total of Bytes Downloaded, vector"
attr unit  B
vector 912  BasicTopology.peer[10].bitTorrentApp.bitTorrentClient.contentManager_26  TotalBytesDownloaded:vector  ETV
attr source  ContentManager_TotalBytesDownloaded
attr title  "Total of Bytes Downloaded, vector"
attr unit  B
vector 864  BasicTopology.peer[4].bitTorrentApp.bitTorrentClient.contentManager_26  TotalBytesDownloaded:vector  ETV
attr source  ContentManager_TotalBytesDownloaded
attr title  "Total of Bytes Downloaded, vector"
attr unit  B
vector 880  BasicTopology.peer[6].bitTorrentApp.bitTorrentClient.contentManager_26  TotalBytesDownloaded:vector  ETV
attr source  ContentManager_TotalBytesDownloaded
attr title  "Total of Bytes Downloaded, vector"
attr unit  B
vector 928  BasicTopology.peer[12].bitTorrentApp.bitTorrentClient.contentManager_26  TotalBytesDownloaded:vector  ETV
attr source  ContentManager_TotalBytesDownloaded
attr title  "Total of Bytes Downloaded, vector"
attr unit  B
vector 911  BasicTopology.peer[10].bitTorrentApp.bitTorrentClient.contentManager_26  PiecesDownloaded:vector  ETV
attr source  ContentManager_PieceDownloaded
attr title  "Pieces Downloaded, vector"
vector 913  BasicTopology.peer[10].bitTorrentApp.bitTorrentClient.contentManager_26  TotalBytesUploaded:vector  ETV
attr source  ContentManager_TotalBytesUploaded
attr title  "Total of Bytes Uploaded, vector"
attr unit  B
vector 952  BasicTopology.peer[15].bitTorrentApp.bitTorrentClient.contentManager_26  TotalBytesDownloaded:vector  ETV
attr source  ContentManager_TotalBytesDownloaded
attr title  "Total of Bytes Downloaded, vector"
attr unit  B
vector 848  BasicTopology.peer[2].bitTorrentApp.bitTorrentClient.contentManager_26  TotalBytesDownloaded:vector  ETV
attr source  ContentManager_TotalBytesDownloaded
attr title  "Total of Bytes Downloaded, vector"
attr unit  B
vector 888  BasicTopology.peer[7].bitTorrentApp.bitTorrentClient.contentManager_26  TotalBytesDownloaded:vector  ETV
attr source  ContentManager_TotalBytesDownloaded
attr title  "Total of Bytes Downloaded, vector"
attr unit  B
vector 1015  BasicTopology.peer[23].bitTorrentApp.bitTorrentClient.contentManager_26  PiecesDownloaded:vector  ETV
attr source  ContentManager_PieceDownloaded
attr title  "Pieces Downloaded, vector"
vector 1017  BasicTopology.peer[23].bitTorrentApp.bitTorrentClient.contentManager_26  TotalBytesUploaded:vector  ETV
attr source  ContentManager_TotalBytesUploaded
attr title  "Total of Bytes Uploaded, vector"
attr unit  B
vector 863  BasicTopology.peer[4].bitTorrentApp.bitTorrentClient.contentManager_26  PiecesDownloaded:vector  ETV
attr source  ContentManager_PieceDownloaded
attr title  "Pieces Downloaded, vector"
vector 976  BasicTopology.peer[18].bitTorrentApp.bitTorrentClient.contentManager_26  TotalBytesDownloaded:vector  ETV
attr source  ContentManager_TotalBytesDownloaded
attr title  "Total of Bytes Downloaded, vector"
attr unit  B
vector 896  BasicTopology.peer[8].bitTorrentApp.bitTorrentClient.contentManager_26  TotalBytesDownloaded:vector  ETV
attr source  ContentManager_TotalBytesDownloaded
attr title  "Total of Bytes Downloaded, vector"
attr unit  B
vector 960  BasicTopology.peer[16].bitTorrentApp.bitTorrentClient.contentManager_26  TotalBytesDownloaded:vector  ETV
attr source  ContentManager_TotalBytesDownloaded
attr title  "Total of Bytes Downloaded, vector"
attr unit  B
vector 1000  BasicTopology.peer[21].bitTorrentApp.bitTorrentClient.contentManager_26  TotalBytesDownloaded:vector  ETV
attr source  ContentManager_TotalBytesDownloaded
attr title  "Total of Bytes Downloaded, vector"
attr unit  B
vector 984  BasicTopology.peer[19].bitTorrentApp.bitTorrentClient.contentManager_26  TotalBytesDownloaded:vector  ETV
attr source  ContentManager_TotalBytesDownloaded
attr title  "Total of Bytes Downloaded, vector"
attr unit  B
vector 872  BasicTopology.peer[5].bitTorrentApp.bitTorrentClient.contentManager_26  TotalBytesDownloaded:vector  ETV
attr source  ContentManager_TotalBytesDownloaded
attr title  "Total of Bytes Downloaded, vector"
attr unit  B
vector 865  BasicTopology.peer[4].bitTorrentApp.bitTorrentClient.contentManager_26  TotalBytesUploaded:vector  ETV
attr source  ContentManager_TotalBytesUploaded
attr title  "Total of Bytes Uploaded, vector"
attr unit  B
vector 1024  BasicTopology.peer[24].bitTorrentApp.bitTorrentClient.contentManager_26  TotalBytesDownloaded:vector  ETV
attr source  ContentManager_TotalBytesDownloaded
attr title  "Total of Bytes Downloaded, vector"
attr unit  B
vector 879  BasicTopology.peer[6].bitTorrentApp.bitTorrentClient.contentManager_26  PiecesDownloaded:vector  ETV
attr source  ContentManager_PieceDownloaded
attr title  "Pieces Downloaded, vector"
vector 881  BasicTopology.peer[6].bitTorrentApp.bitTorrentClient.contentManager_26  TotalBytesUploaded:vector  ETV
attr source  ContentManager_TotalBytesUploaded
attr title  "Total of Bytes Uploaded, vector"
attr unit  B
vector 999  BasicTopology.peer[21].bitTorrentApp.bitTorrentClient.contentManager_26  PiecesDownloaded:vector  ETV
attr source  ContentManager_PieceDownloaded
attr title  "Pieces Downloaded, vector"
vector 856  BasicTopology.peer[3].bitTorrentApp.bitTorrentClient.contentManager_26  TotalBytesDownloaded:vector  ETV
attr source  ContentManager_TotalBytesDownloaded
attr title  "Total of Bytes Downloaded, vector"
attr unit  B
vector 1001  BasicTopology.peer[21].bitTorrentApp.bitTorrentClient.contentManager_26  TotalBytesUploaded:vector  ETV
attr source  ContentManager_TotalBytesUploaded
attr title  "Total of Bytes Uploaded, vector"
attr unit  B
vector 1023  BasicTopology.peer[24].bitTorrentApp.bitTorrentClient.contentManager_26  PiecesDownloaded:vector  ETV
attr source  ContentManager_PieceDownloaded
attr title  "Pieces Downloaded, vector"
vector 855  BasicTopology.peer[3].bitTorrentApp.bitTorrentClient.contentManager_26  PiecesDownloaded:vector  ETV
attr source  ContentManager_PieceDownloaded
attr title  "Pieces Downloaded, vector"
vector 895  BasicTopology.peer[8].bitTorrentApp.bitTorrentClient.contentManager_26  PiecesDownloaded:vector  ETV
attr source  ContentManager_PieceDownloaded
attr title  "Pieces Downloaded, vector"
vector 919  BasicTopology.peer[11].bitTorrentApp.bitTorrentClient.contentManager_26  PiecesDownloaded:vector  ETV
attr source  ContentManager_PieceDownloaded
attr title  "Pieces Downloaded, vector"
vector 936  BasicTopology.peer[13].bitTorrentApp.bitTorrentClient.contentManager_26  TotalBytesDownloaded:vector  ETV
attr source  ContentManager_TotalBytesDownloaded
attr title  "Total of Bytes Downloaded, vector"
attr unit  B
vector 847  BasicTopology.peer[2].bitTorrentApp.bitTorrentClient.contentManager_26  PiecesDownloaded:vector  ETV
attr source  ContentManager_PieceDownloaded
attr title  "Pieces Downloaded, vector"
vector 921  BasicTopology.peer[11].bitTorrentApp.bitTorrentClient.contentManager_26  TotalBytesUploaded:vector  ETV
attr source  ContentManager_TotalBytesUploaded
attr title  "Total of Bytes Uploaded, vector"
attr unit  B
vector 857  BasicTopology.peer[3].bitTorrentApp.bitTorrentClient.contentManager_26  TotalBytesUploaded:vector  ETV
attr source  ContentManager_TotalBytesUploaded
attr title  "Total of Bytes Uploaded, vector"
attr unit  B
vector 897  BasicTopology.peer[8].bitTorrentApp.bitTorrentClient.contentManager_26  TotalBytesUploaded:vector  ETV
attr source  ContentManager_TotalBytesUploaded
attr title  "Total of Bytes Uploaded, vector"
attr unit  B
vector 951  BasicTopology.peer[15].bitTorrentApp.bitTorrentClient.contentManager_26  PiecesDownloaded:vector  ETV
attr source  ContentManager_PieceDownloaded
attr title  "Pieces Downloaded, vector"
vector 983  BasicTopology.peer[19].bitTorrentApp.bitTorrentClient.contentManager_26  PiecesDownloaded:vector  ETV
attr source  ContentManager_PieceDownloaded
attr title  "Pieces Downloaded, vector"
vector 959  BasicTopology.peer[16].bitTorrentApp.bitTorrentClient.contentManager_26  PiecesDownloaded:vector  ETV
attr source  ContentManager_PieceDownloaded
attr title  "Pieces Downloaded, vector"
vector 968  BasicTopology.peer[17].bitTorrentApp.bitTorrentClient.contentManager_26  TotalBytesDownloaded:vector  ETV
attr source  ContentManager_TotalBytesDownloaded
attr title  "Total of Bytes Downloaded, vector"
attr unit  B
vector 967  BasicTopology.peer[17].bitTorrentApp.bitTorrentClient.contentManager_26  PiecesDownloaded:vector  ETV
attr source  ContentManager_PieceDownloaded
attr title  "Pieces Downloaded, vector"
vector 871  BasicTopology.peer[5].bitTorrentApp.bitTorrentClient.contentManager_26  PiecesDownloaded:vector  ETV
attr source  ContentManager_PieceDownloaded
attr title  "Pieces Downloaded, vector"
vector 873  BasicTopology.peer[5].bitTorrentApp.bitTorrentClient.contentManager_26  TotalBytesUploaded:vector  ETV
attr source  ContentManager_TotalBytesUploaded
attr title  "Total of Bytes Uploaded, vector"
attr unit  B
vector 1025  BasicTopology.peer[24].bitTorrentApp.bitTorrentClient.contentManager_26  TotalBytesUploaded:vector  ETV
attr source  ContentManager_TotalBytesUploaded
attr title  "Total of Bytes Uploaded, vector"
attr unit  B
vector 903  BasicTopology.peer[9].bitTorrentApp.bitTorrentClient.contentManager_26  PiecesDownloaded:vector  ETV
attr source  ContentManager_PieceDownloaded
attr title  "Pieces Downloaded, vector"
vector 927  BasicTopology.peer[12].bitTorrentApp.bitTorrentClient.contentManager_26  PiecesDownloaded:vector  ETV
attr source  ContentManager_PieceDownloaded
attr title  "Pieces Downloaded, vector"
vector 975  BasicTopology.peer[18].bitTorrentApp.bitTorrentClient.contentManager_26  PiecesDownloaded:vector  ETV
attr source  ContentManager_PieceDownloaded
attr title  "Pieces Downloaded, vector"
vector 929  BasicTopology.peer[12].bitTorrentApp.bitTorrentClient.contentManager_26  TotalBytesUploaded:vector  ETV
attr source  ContentManager_TotalBytesUploaded
attr title  "Total of Bytes Uploaded, vector"
attr unit  B
vector 887  BasicTopology.peer[7].bitTorrentApp.bitTorrentClient.contentManager_26  PiecesDownloaded:vector  ETV
attr source  ContentManager_PieceDownloaded
attr title  "Pieces Downloaded, vector"
vector 849  BasicTopology.peer[2].bitTorrentApp.bitTorrentClient.contentManager_26  TotalBytesUploaded:vector  ETV
attr source  ContentManager_TotalBytesUploaded
attr title  "Total of Bytes Uploaded, vector"
attr unit  B
vector 961  BasicTopology.peer[16].bitTorrentApp.bitTorrentClient.contentManager_26  TotalBytesUploaded:vector  ETV
attr source  ContentManager_TotalBytesUploaded
attr title  "Total of Bytes Uploaded, vector"
attr unit  B
vector 889  BasicTopology.peer[7].bitTorrentApp.bitTorrentClient.contentManager_26  TotalBytesUploaded:vector  ETV
attr source  ContentManager_TotalBytesUploaded
attr title  "Total of Bytes Uploaded, vector"
attr unit  B
vector 935  BasicTopology.peer[13].bitTorrentApp.bitTorrentClient.contentManager_26  PiecesDownloaded:vector  ETV
attr source  ContentManager_PieceDownloaded
attr title  "Pieces Downloaded, vector"
vector 943  BasicTopology.peer[14].bitTorrentApp.bitTorrentClient.contentManager_26  PiecesDownloaded:vector  ETV
attr source  ContentManager_PieceDownloaded
attr title  "Pieces Downloaded, vector"
vector 969  BasicTopology.peer[17].bitTorrentApp.bitTorrentClient.contentManager_26  TotalBytesUploaded:vector  ETV
attr source  ContentManager_TotalBytesUploaded
attr title  "Total of Bytes Uploaded, vector"
attr unit  B
3	85	36001	36001
3	80191144	36152.996322226289	36152.996322226
5	86	36001	36001
5	50063751	36086.421286303117	36086.421286303
7	87	36001	36001
7	71327026	36130.268451375648	36130.268451376
9	88	36001	36001
9	70788728	36128.885395748025	36128.885395748
11	89	36001	36001
11	80799183	36164.511378116316	36164.511378116
13	90	36001	36001
13	79467618	36149.40505293335	36149.405052933
15	91	36001	36001
15	77301511	36144.031852984732	36144.031852985
17	92	36001	36001
17	77623305	36144.643968430651	36144.643968431
19	93	36001	36001
19	78285937	36146.45119139402	36146.451191394
21	94	36001	36001
21	64787482	36115.757124130546	36115.757124131
23	95	36001	36001
23	45703251	36078.459762673276	36078.459762673
25	96	36001	36001
25	66237189	36118.704250657246	36118.704250657
27	97	36001	36001
27	72615900	36132.96718127859	36132.967181279
29	98	36001	36001
29	76744475	36142.888156560088	36142.88815656
31	99	36001	36001
31	80570973	36157.830090357194	36157.830090357
33	100	36001	36001
33	74368919	36137.120153751902	36137.120153752
35	101	36001	36001
35	76122762	36141.327833583944	36141.327833584
37	102	36001	36001
37	75058041	36138.641552680513	36138.641552681
39	103	36001	36001
39	73572005	36134.95861911547	36134.958619115
41	104	36001	36001
41	31407594	36053.71431165724	36053.714311657
43	105	36001	36001
43	67563324	36121.679969194228	36121.679969194
45	106	36001	36001
45	44246607	36075.934972116553	36075.934972117
47	107	36001	36001
47	66636339	36119.688424858753	36119.688424859
49	108	36001	36001
49	79095228	36148.543863669637	36148.54386367
833	92149	36001.062662333631	32768
833	92178	36001.062669255866	65536
833	92939	36001.063286831492	98304
833	107782	36001.075966545931	131072
833	119646	36001.086879104443	163840
833	124378	36001.090985974418	196608
833	124988	36001.091568744722	229376
833	127181	36001.093760591758	262144
833	127668	36001.09432480297	294912
833	129206	36001.095956700888	327680
833	425373	36002.544722388722	360448
833	471816	36002.63403243752	393216
833	496017	36002.692323317966	425984
833	510307	36002.738582646675	458752
833	525330	36002.803629370547	491520
833	542560	36002.873139055521	524288
833	554514	36002.924209620925	557056
833	576691	36002.994997127329	589824
833	651145	36003.150276014458	622592
833	659957	36003.174191564035	655360
833	660230	36003.175136197865	688128
833	660332	36003.175419825322	720896
833	663228	36003.186138067958	753664
833	667181	36003.199143497151	786432
833	671186	36003.210828877964	819200
833	674117	36003.222295142921	851968
833	674121	36003.229506067891	884736
833	674125	36003.230539552838	917504
833	674127	36003.230731191949	950272
833	674130	36003.23473638428	983040
833	674132	36003.235195009061	1015808
833	674136	36003.235491237089	1048576
833	674138	36003.23599021722	1081344
833	674144	36003.268487998905	1114112
833	674147	36003.275234544255	1146880
833	674149	36003.27538802204	1179648
833	674151	36003.286336605905	1212416
833	674155	36003.311306468267	1245184
833	674157	36003.311447816363	1277952
833	674159	36003.314291422599	1310720
833	674161	36003.315585070399	1343488
833	674164	36003.328670356936	1376256
833	674166	36003.330821256998	1409024
833	674169	36003.342383152023	1441792
833	674171	36003.34872890767	1474560
833	674173	36003.357205947362	1507328
833	674175	36003.358027145018	1540096
833	674177	36003.358665534707	1572864
833	804601	36004.122445832038	1605632
833	876997	36004.220943203739	1638400
833	886667	36004.252081313482	1671168
833	897414	36004.285502155648	1703936
833	905496	36004.312992467989	1736704
833	1283847	36005.26964017805	1769472
833	1303901	36005.34767213612	1802240
833	1305781	36005.353750301604	1835008
833	1313664	36005.378132482609	1867776
833	1322221	36005.406430077018	1900544
833	1332958	36005.438608590998	1933312
833	1501328	36005.747088554556	1966080
833	1509511	36005.761351257376	1998848
833	1509972	36005.76301485543	2031616
833	1513571	36005.775067458607	2064384
833	1518439	36005.786272400324	2097152
833	1518754	36005.786731947446	2129920
833	1522510	36005.800592764838	2162688
833	1522679	36005.801096523877	2195456
833	1523916	36005.805447250578	2228224
833	1525072	36005.809445935376	2260992
833	1687517	36006.442390375856	2293760
833	1699498	36006.483609400561	2326528
833	1702878	36006.494516383995	2359296
833	1953565	36007.119034884824	2392064
833	1957704	36007.131880395842	2424832
833	1962065	36007.145844841759	2457600
833	1962958	36007.148050934099	2490368
833	1967436	36007.161994251014	2523136
833	1968218	36007.163980869226	2555904
833	1969397	36007.167223623275	2588672
833	1972454	36007.177757987092	2621440
833	1972512	36007.177923001487	2654208
833	1974528	36007.184575832721	2686976
833	2120859	36007.541832030338	2719744
833	2145567	36007.574566666172	2752512
833	2165372	36007.602551368162	2785280
833	2182213	36007.628493982384	2818048
833	2204892	36007.661118764426	2850816
833	2239735	36007.710997523445	2883584
833	2253034	36007.7312925505	2916352
833	2260251	36007.742473101476	2949120
833	2354418	36007.914795198679	2981888
833	2392377	36007.973233918684	3014656
833	2816787	36008.780465391144	3047424
833	2844765	36008.829185522724	3080192
833	2861635	36008.855806840428	3112960
833	2875961	36008.878206239043	3145728
833	2891358	36008.902863342608	3178496
833	2911539	36008.933477485568	3211264
833	2923190	36008.953194729309	3244032
833	2945179	36008.987517939498	3276800
833	2955174	36009.003308046103	3309568
833	2967840	36009.024266061946	3342336
833	2981957	36009.046453711582	3375104
833	3242498	36009.587208931582	3407872
833	3280160	36009.654810625309	3440640
833	3306475	36009.701856040557	3473408
833	3382317	36009.828120788366	3506176
833	3561470	36010.063552410255	3538944
833	3572136	36010.073146664317	3571712
833	3574737	36010.075503820772	3604480
833	3590702	36010.093933568266	3637248
833	3599954	36010.107075503967	3670016
833	3600131	36010.107678244235	3702784
833	3608018	36010.118221994977	3735552
833	3608229	36010.118536776416	3768320
833	3608888	36010.119554378573	3801088
833	3628192	36010.149685874542	3833856
833	3643380	36010.17387060593	3866624
833	3649382	36010.18379381581	3899392
833	3649988	36010.184785906475	3932160
833	3673499	36010.225810573835	3964928
833	4038894	36010.889948669161	3997696
833	4105185	36010.989631699808	4030464
833	4210839	36011.167483101308	4063232
833	4241747	36011.222516519657	4096000
833	4265386	36011.26185679691	4128768
833	4544125	36011.77634365342	4161536
833	4591049	36011.873922294533	4194304
833	4625339	36011.945551734589	4227072
833	4660802	36012.011505299825	4259840
833	4712696	36012.099870812571	4292608
833	4850444	36012.359427752274	4325376
833	4878129	36012.405200431716	4358144
833	5279886	36013.119548101791	4390912
833	5305473	36013.194385934465	4423680
833	5356234	36013.2941955626	4456448
833	5445276	36013.477057065494	4489216
833	5448873	36013.487476551223	4521984
833	5450392	36013.490830063023	4554752
833	5457498	36013.507208967223	4587520
833	5460840	36013.516282675365	4620288
833	5468891	36013.530131874736	4653056
833	5469032	36013.530443022166	4685824
833	5568318	36013.783025500275	4718592
833	5594556	36013.855145628301	4751360
833	5598840	36013.867241410241	4784128
833	5620441	36013.937112676649	4816896
833	5639074	36013.975842393728	4849664
833	5669702	36014.014760926289	4882432
833	5677686	36014.025681692224	4915200
833	5696437	36014.055869492834	4947968
833	5713101	36014.088806825802	4980736
833	5716852	36014.097642458421	5013504
833	5747281	36014.141441621021	5046272
833	5795147	36014.228223206022	5079040
833	5853040	36014.332901304445	5111808
833	5874119	36014.37524861248	5144576
833	5968680	36014.531612028697	5177344
833	6014234	36014.600548994199	5210112
833	6338495	36015.262913935532	5242880
833	6464646	36015.47372302296	5275648
833	6642216	36015.760826125797	5308416
833	6694216	36015.826586720848	5341184
833	6741517	36015.88564940879	5373952
833	6786850	36015.962301422219	5406720
833	6831646	36016.039470344397	5439488
833	6876476	36016.116497634948	5472256
833	6967290	36016.252940107682	5505024
833	6993463	36016.291734297889	5537792
833	7030304	36016.349814013442	5570560
833	7069702	36016.443371702155	5603328
833	7124332	36016.583412343612	5636096
833	7191624	36016.68644652508	5668864
833	7627794	36017.410293844997	5701632
833	7645118	36017.440224398398	5734400
833	7648567	36017.4462714212	5767168
833	7941637	36017.892147635532	5799936
833	7979302	36017.946704612431	5832704
833	8284401	36018.486561287205	5865472
833	8310086	36018.527370991121	5898240
833	8321926	36018.546067412496	5931008
833	8338079	36018.570512646101	5963776
833	8392388	36018.644998790289	5996544
833	8651068	36019.039003838373	6029312
833	8691351	36019.104255971885	6062080
833	8909214	36019.505919756585	6094848
833	9231952	36019.933194450054	6127616
833	9259996	36019.972398582526	6160384
833	9261904	36019.975048705453	6193152
833	9358570	36020.121131140175	6225920
833	9462856	36020.276132342447	6258688
833	9676616	36020.673429170454	6291456
833	9703978	36020.757479367579	6324224
833	9733885	36020.823752758927	6356992
833	9793890	36020.920750634413	6389760
833	9841468	36020.99160932862	6422528
833	9887379	36021.087023901059	6455296
833	9974912	36021.297362448325	6488064
833	10019202	36021.367407650619	6520832
833	10022514	36021.372994220286	6553600
833	10169689	36021.602598892131	6586368
833	10201372	36021.649173394784	6619136
833	10215727	36021.671758495017	6651904
833	10232359	36021.694650909732	6684672
833	10310333	36021.811852676315	6717440
833	10325164	36021.832769901551	6750208
833	10596062	36022.179283938494	6782976
833	10625189	36022.277472838837	6815744
833	10690715	36022.404538948584	6848512
833	10734848	36022.481494029282	6881280
833	10909226	36022.881063033199	6914048
833	10938266	36022.928463365693	6946816
833	11359191	36023.627484706317	6979584
833	11412999	36023.715006033248	7012352
833	12068078	36024.713709773091	7045120
833	12196675	36024.894886517131	7077888
833	12494934	36025.319390237132	7110656
833	12508559	36025.338418249671	7143424
833	12509076	36025.338967124201	7176192
833	12512539	36025.34375894802	7208960
833	12513467	36025.344769308065	7241728
833	12515210	36025.347065467774	7274496
833	12516000	36025.347853110479	7307264
833	12532699	36025.370571154449	7340032
833	12533251	36025.37115343864	7372800
833	12533441	36025.371335018429	7405568