version 2
run Test-19-20200424-20:20:26-7848
attr configname Test
attr datetime 20200424-20:20:26
attr experiment "\"Simulation Test\""
attr inifile BasicConfig.ini
attr iterationvars ""
attr iterationvars2 $repetition=19
attr measurement "\"Peers: $peers, Rate: $rate\""
attr network BasicTopology
attr processid 7848
attr repetition 19
attr replication #19
attr resultdir results
attr runnumber 19
attr seedset 19

vector 3  BasicTopology.peer[1].bitTorrentApp.bitTorrentClient  DownloadComplete_Test:vector  ETV
attr source  BitTorrentClient_DownloadComplete_Test
attr title  "Descargas completas (prueba), vector"
vector 5  BasicTopology.peer[2].bitTorrentApp.bitTorrentClient  DownloadComplete_Test:vector  ETV
attr source  BitTorrentClient_DownloadComplete_Test
attr title  "Descargas completas (prueba), vector"
vector 7  BasicTopology.peer[3].bitTorrentApp.bitTorrentClient  DownloadComplete_Test:vector  ETV
attr source  BitTorrentClient_DownloadComplete_Test
attr title  "Descargas completas (prueba), vector"
vector 9  BasicTopology.peer[4].bitTorrentApp.bitTorrentClient  DownloadComplete_Test:vector  ETV
attr source  BitTorrentClient_DownloadComplete_Test
attr title  "Descargas completas (prueba), vector"
vector 11  BasicTopology.peer[5].bitTorrentApp.bitTorrentClient  DownloadComplete_Test:vector  ETV
attr source  BitTorrentClient_DownloadComplete_Test
attr title  "Descargas completas (prueba), vector"
vector 13  BasicTopology.peer[6].bitTorrentApp.bitTorrentClient  DownloadComplete_Test:vector  ETV
attr source  BitTorrentClient_DownloadComplete_Test
attr title  "Descargas completas (prueba), vector"
vector 15  BasicTopology.peer[7].bitTorrentApp.bitTorrentClient  DownloadComplete_Test:vector  ETV
attr source  BitTorrentClient_DownloadComplete_Test
attr title  "Descargas completas (prueba), vector"
vector 17  BasicTopology.peer[8].bitTorrentApp.bitTorrentClient  DownloadComplete_Test:vector  ETV
attr source  BitTorrentClient_DownloadComplete_Test
attr title  "Descargas completas (prueba), vector"
vector 19  BasicTopology.peer[9].bitTorrentApp.bitTorrentClient  DownloadComplete_Test:vector  ETV
attr source  BitTorrentClient_DownloadComplete_Test
attr title  "Descargas completas (prueba), vector"
vector 21  BasicTopology.peer[10].bitTorrentApp.bitTorrentClient  DownloadComplete_Test:vector  ETV
attr source  BitTorrentClient_DownloadComplete_Test
attr title  "Descargas completas (prueba), vector"
vector 23  BasicTopology.peer[11].bitTorrentApp.bitTorrentClient  DownloadComplete_Test:vector  ETV
attr source  BitTorrentClient_DownloadComplete_Test
attr title  "Descargas completas (prueba), vector"
vector 25  BasicTopology.peer[12].bitTorrentApp.bitTorrentClient  DownloadComplete_Test:vector  ETV
attr source  BitTorrentClient_DownloadComplete_Test
attr title  "Descargas completas (prueba), vector"
vector 27  BasicTopology.peer[13].bitTorrentApp.bitTorrentClient  DownloadComplete_Test:vector  ETV
attr source  BitTorrentClient_DownloadComplete_Test
attr title  "Descargas completas (prueba), vector"
vector 29  BasicTopology.peer[14].bitTorrentApp.bitTorrentClient  DownloadComplete_Test:vector  ETV
attr source  BitTorrentClient_DownloadComplete_Test
attr title  "Descargas completas (prueba), vector"
vector 31  BasicTopology.peer[15].bitTorrentApp.bitTorrentClient  DownloadComplete_Test:vector  ETV
attr source  BitTorrentClient_DownloadComplete_Test
attr title  "Descargas completas (prueba), vector"
vector 33  BasicTopology.peer[16].bitTorrentApp.bitTorrentClient  DownloadComplete_Test:vector  ETV
attr source  BitTorrentClient_DownloadComplete_Test
attr title  "Descargas completas (prueba), vector"
vector 35  BasicTopology.peer[17].bitTorrentApp.bitTorrentClient  DownloadComplete_Test:vector  ETV
attr source  BitTorrentClient_DownloadComplete_Test
attr title  "Descargas completas (prueba), vector"
vector 37  BasicTopology.peer[18].bitTorrentApp.bitTorrentClient  DownloadComplete_Test:vector  ETV
attr source  BitTorrentClient_DownloadComplete_Test
attr title  "Descargas completas (prueba), vector"
vector 39  BasicTopology.peer[19].bitTorrentApp.bitTorrentClient  DownloadComplete_Test:vector  ETV
attr source  BitTorrentClient_DownloadComplete_Test
attr title  "Descargas completas (prueba), vector"
vector 41  BasicTopology.peer[20].bitTorrentApp.bitTorrentClient  DownloadComplete_Test:vector  ETV
attr source  BitTorrentClient_DownloadComplete_Test
attr title  "Descargas completas (prueba), vector"
vector 43  BasicTopology.peer[21].bitTorrentApp.bitTorrentClient  DownloadComplete_Test:vector  ETV
attr source  BitTorrentClient_DownloadComplete_Test
attr title  "Descargas completas (prueba), vector"
vector 45  BasicTopology.peer[22].bitTorrentApp.bitTorrentClient  DownloadComplete_Test:vector  ETV
attr source  BitTorrentClient_DownloadComplete_Test
attr title  "Descargas completas (prueba), vector"
vector 47  BasicTopology.peer[23].bitTorrentApp.bitTorrentClient  DownloadComplete_Test:vector  ETV
attr source  BitTorrentClient_DownloadComplete_Test
attr title  "Descargas completas (prueba), vector"
vector 49  BasicTopology.peer[24].bitTorrentApp.bitTorrentClient  DownloadComplete_Test:vector  ETV
attr source  BitTorrentClient_DownloadComplete_Test
attr title  "Descargas completas (prueba), vector"
vector 833  BasicTopology.peer[0].bitTorrentApp.bitTorrentClient.contentManager_26  TotalBytesUploaded:vector  ETV
attr source  ContentManager_TotalBytesUploaded
attr title  "Total of Bytes Uploaded, vector"
attr unit  B
vector 840  BasicTopology.peer[1].bitTorrentApp.bitTorrentClient.contentManager_26  TotalBytesDownloaded:vector  ETV
attr source  ContentManager_TotalBytesDownloaded
attr title  "Total of Bytes Downloaded, vector"
attr unit  B
vector 928  BasicTopology.peer[12].bitTorrentApp.bitTorrentClient.contentManager_26  TotalBytesDownloaded:vector  ETV
attr source  ContentManager_TotalBytesDownloaded
attr title  "Total of Bytes Downloaded, vector"
attr unit  B
vector 848  BasicTopology.peer[2].bitTorrentApp.bitTorrentClient.contentManager_26  TotalBytesDownloaded:vector  ETV
attr source  ContentManager_TotalBytesDownloaded
attr title  "Total of Bytes Downloaded, vector"
attr unit  B
vector 912  BasicTopology.peer[10].bitTorrentApp.bitTorrentClient.contentManager_26  TotalBytesDownloaded:vector  ETV
attr source  ContentManager_TotalBytesDownloaded
attr title  "Total of Bytes Downloaded, vector"
attr unit  B
vector 911  BasicTopology.peer[10].bitTorrentApp.bitTorrentClient.contentManager_26  PiecesDownloaded:vector  ETV
attr source  ContentManager_PieceDownloaded
attr title  "Pieces Downloaded, vector"
vector 913  BasicTopology.peer[10].bitTorrentApp.bitTorrentClient.contentManager_26  TotalBytesUploaded:vector  ETV
attr source  ContentManager_TotalBytesUploaded
attr title  "Total of Bytes Uploaded, vector"
attr unit  B
vector 864  BasicTopology.peer[4].bitTorrentApp.bitTorrentClient.contentManager_26  TotalBytesDownloaded:vector  ETV
attr source  ContentManager_TotalBytesDownloaded
attr title  "Total of Bytes Downloaded, vector"
attr unit  B
vector 992  BasicTopology.peer[20].bitTorrentApp.bitTorrentClient.contentManager_26  TotalBytesDownloaded:vector  ETV
attr source  ContentManager_TotalBytesDownloaded
attr title  "Total of Bytes Downloaded, vector"
attr unit  B
vector 1008  BasicTopology.peer[22].bitTorrentApp.bitTorrentClient.contentManager_26  TotalBytesDownloaded:vector  ETV
attr source  ContentManager_TotalBytesDownloaded
attr title  "Total of Bytes Downloaded, vector"
attr unit  B
vector 847  BasicTopology.peer[2].bitTorrentApp.bitTorrentClient.contentManager_26  PiecesDownloaded:vector  ETV
attr source  ContentManager_PieceDownloaded
attr title  "Pieces Downloaded, vector"
vector 849  BasicTopology.peer[2].bitTorrentApp.bitTorrentClient.contentManager_26  TotalBytesUploaded:vector  ETV
attr source  ContentManager_TotalBytesUploaded
attr title  "Total of Bytes Uploaded, vector"
attr unit  B
vector 863  BasicTopology.peer[4].bitTorrentApp.bitTorrentClient.contentManager_26  PiecesDownloaded:vector  ETV
attr source  ContentManager_PieceDownloaded
attr title  "Pieces Downloaded, vector"
vector 865  BasicTopology.peer[4].bitTorrentApp.bitTorrentClient.contentManager_26  TotalBytesUploaded:vector  ETV
attr source  ContentManager_TotalBytesUploaded
attr title  "Total of Bytes Uploaded, vector"
attr unit  B
vector 839  BasicTopology.peer[1].bitTorrentApp.bitTorrentClient.contentManager_26  PiecesDownloaded:vector  ETV
attr source  ContentManager_PieceDownloaded
attr title  "Pieces Downloaded, vector"
vector 841  BasicTopology.peer[1].bitTorrentApp.bitTorrentClient.contentManager_26  TotalBytesUploaded:vector  ETV
attr source  ContentManager_TotalBytesUploaded
attr title  "Total of Bytes Uploaded, vector"
attr unit  B
vector 920  BasicTopology.peer[11].bitTorrentApp.bitTorrentClient.contentManager_26  TotalBytesDownloaded:vector  ETV
attr source  ContentManager_TotalBytesDownloaded
attr title  "Total of Bytes Downloaded, vector"
attr unit  B
vector 936  BasicTopology.peer[13].bitTorrentApp.bitTorrentClient.contentManager_26  TotalBytesDownloaded:vector  ETV
attr source  ContentManager_TotalBytesDownloaded
attr title  "Total of Bytes Downloaded, vector"
attr unit  B
vector 872  BasicTopology.peer[5].bitTorrentApp.bitTorrentClient.contentManager_26  TotalBytesDownloaded:vector  ETV
attr source  ContentManager_TotalBytesDownloaded
attr title  "Total of Bytes Downloaded, vector"
attr unit  B
vector 1007  BasicTopology.peer[22].bitTorrentApp.bitTorrentClient.contentManager_26  PiecesDownloaded:vector  ETV
attr source  ContentManager_PieceDownloaded
attr title  "Pieces Downloaded, vector"
vector 1009  BasicTopology.peer[22].bitTorrentApp.bitTorrentClient.contentManager_26  TotalBytesUploaded:vector  ETV
attr source  ContentManager_TotalBytesUploaded
attr title  "Total of Bytes Uploaded, vector"
attr unit  B
vector 1000  BasicTopology.peer[21].bitTorrentApp.bitTorrentClient.contentManager_26  TotalBytesDownloaded:vector  ETV
attr source  ContentManager_TotalBytesDownloaded
attr title  "Total of Bytes Downloaded, vector"
attr unit  B
vector 976  BasicTopology.peer[18].bitTorrentApp.bitTorrentClient.contentManager_26  TotalBytesDownloaded:vector  ETV
attr source  ContentManager_TotalBytesDownloaded
attr title  "Total of Bytes Downloaded, vector"
attr unit  B
vector 880  BasicTopology.peer[6].bitTorrentApp.bitTorrentClient.contentManager_26  TotalBytesDownloaded:vector  ETV
attr source  ContentManager_TotalBytesDownloaded
attr title  "Total of Bytes Downloaded, vector"
attr unit  B
vector 888  BasicTopology.peer[7].bitTorrentApp.bitTorrentClient.contentManager_26  TotalBytesDownloaded:vector  ETV
attr source  ContentManager_TotalBytesDownloaded
attr title  "Total of Bytes Downloaded, vector"
attr unit  B
vector 896  BasicTopology.peer[8].bitTorrentApp.bitTorrentClient.contentManager_26  TotalBytesDownloaded:vector  ETV
attr source  ContentManager_TotalBytesDownloaded
attr title  "Total of Bytes Downloaded, vector"
attr unit  B
vector 856  BasicTopology.peer[3].bitTorrentApp.bitTorrentClient.contentManager_26  TotalBytesDownloaded:vector  ETV
attr source  ContentManager_TotalBytesDownloaded
attr title  "Total of Bytes Downloaded, vector"
attr unit  B
vector 999  BasicTopology.peer[21].bitTorrentApp.bitTorrentClient.contentManager_26  PiecesDownloaded:vector  ETV
attr source  ContentManager_PieceDownloaded
attr title  "Pieces Downloaded, vector"
vector 991  BasicTopology.peer[20].bitTorrentApp.bitTorrentClient.contentManager_26  PiecesDownloaded:vector  ETV
attr source  ContentManager_PieceDownloaded
attr title  "Pieces Downloaded, vector"
vector 993  BasicTopology.peer[20].bitTorrentApp.bitTorrentClient.contentManager_26  TotalBytesUploaded:vector  ETV
attr source  ContentManager_TotalBytesUploaded
attr title  "Total of Bytes Uploaded, vector"
attr unit  B
vector 935  BasicTopology.peer[13].bitTorrentApp.bitTorrentClient.contentManager_26  PiecesDownloaded:vector  ETV
attr source  ContentManager_PieceDownloaded
attr title  "Pieces Downloaded, vector"
vector 937  BasicTopology.peer[13].bitTorrentApp.bitTorrentClient.contentManager_26  TotalBytesUploaded:vector  ETV
attr source  ContentManager_TotalBytesUploaded
attr title  "Total of Bytes Uploaded, vector"
attr unit  B
vector 1001  BasicTopology.peer[21].bitTorrentApp.bitTorrentClient.contentManager_26  TotalBytesUploaded:vector  ETV
attr source  ContentManager_TotalBytesUploaded
attr title  "Total of Bytes Uploaded, vector"
attr unit  B
vector 895  BasicTopology.peer[8].bitTorrentApp.bitTorrentClient.contentManager_26  PiecesDownloaded:vector  ETV
attr source  ContentManager_PieceDownloaded
attr title  "Pieces Downloaded, vector"
vector 897  BasicTopology.peer[8].bitTorrentApp.bitTorrentClient.contentManager_26  TotalBytesUploaded:vector  ETV
attr source  ContentManager_TotalBytesUploaded
attr title  "Total of Bytes Uploaded, vector"
attr unit  B
vector 968  BasicTopology.peer[17].bitTorrentApp.bitTorrentClient.contentManager_26  TotalBytesDownloaded:vector  ETV
attr source  ContentManager_TotalBytesDownloaded
attr title  "Total of Bytes Downloaded, vector"
attr unit  B
vector 1016  BasicTopology.peer[23].bitTorrentApp.bitTorrentClient.contentManager_26  TotalBytesDownloaded:vector  ETV
attr source  ContentManager_TotalBytesDownloaded
attr title  "Total of Bytes Downloaded, vector"
attr unit  B
vector 879  BasicTopology.peer[6].bitTorrentApp.bitTorrentClient.contentManager_26  PiecesDownloaded:vector  ETV
attr source  ContentManager_PieceDownloaded
attr title  "Pieces Downloaded, vector"
vector 881  BasicTopology.peer[6].bitTorrentApp.bitTorrentClient.contentManager_26  TotalBytesUploaded:vector  ETV
attr source  ContentManager_TotalBytesUploaded
attr title  "Total of Bytes Uploaded, vector"
attr unit  B
vector 1024  BasicTopology.peer[24].bitTorrentApp.bitTorrentClient.contentManager_26  TotalBytesDownloaded:vector  ETV
attr source  ContentManager_TotalBytesDownloaded
attr title  "Total of Bytes Downloaded, vector"
attr unit  B
vector 904  BasicTopology.peer[9].bitTorrentApp.bitTorrentClient.contentManager_26  TotalBytesDownloaded:vector  ETV
attr source  ContentManager_TotalBytesDownloaded
attr title  "Total of Bytes Downloaded, vector"
attr unit  B
vector 887  BasicTopology.peer[7].bitTorrentApp.bitTorrentClient.contentManager_26  PiecesDownloaded:vector  ETV
attr source  ContentManager_PieceDownloaded
attr title  "Pieces Downloaded, vector"
vector 960  BasicTopology.peer[16].bitTorrentApp.bitTorrentClient.contentManager_26  TotalBytesDownloaded:vector  ETV
attr source  ContentManager_TotalBytesDownloaded
attr title  "Total of Bytes Downloaded, vector"
attr unit  B
vector 984  BasicTopology.peer[19].bitTorrentApp.bitTorrentClient.contentManager_26  TotalBytesDownloaded:vector  ETV
attr source  ContentManager_TotalBytesDownloaded
attr title  "Total of Bytes Downloaded, vector"
attr unit  B
vector 944  BasicTopology.peer[14].bitTorrentApp.bitTorrentClient.contentManager_26  TotalBytesDownloaded:vector  ETV
attr source  ContentManager_TotalBytesDownloaded
attr title  "Total of Bytes Downloaded, vector"
attr unit  B
vector 903  BasicTopology.peer[9].bitTorrentApp.bitTorrentClient.contentManager_26  PiecesDownloaded:vector  ETV
attr source  ContentManager_PieceDownloaded
attr title  "Pieces Downloaded, vector"
vector 967  BasicTopology.peer[17].bitTorrentApp.bitTorrentClient.contentManager_26  PiecesDownloaded:vector  ETV
attr source  ContentManager_PieceDownloaded
attr title  "Pieces Downloaded, vector"
vector 871  BasicTopology.peer[5].bitTorrentApp.bitTorrentClient.contentManager_26  PiecesDownloaded:vector  ETV
attr source  ContentManager_PieceDownloaded
attr title  "Pieces Downloaded, vector"
vector 959  BasicTopology.peer[16].bitTorrentApp.bitTorrentClient.contentManager_26  PiecesDownloaded:vector  ETV
attr source  ContentManager_PieceDownloaded
attr title  "Pieces Downloaded, vector"
vector 952  BasicTopology.peer[15].bitTorrentApp.bitTorrentClient.contentManager_26  TotalBytesDownloaded:vector  ETV
attr source  ContentManager_TotalBytesDownloaded
attr title  "Total of Bytes Downloaded, vector"
attr unit  B
vector 983  BasicTopology.peer[19].bitTorrentApp.bitTorrentClient.contentManager_26  PiecesDownloaded:vector  ETV
attr source  ContentManager_PieceDownloaded
attr title  "Pieces Downloaded, vector"
vector 975  BasicTopology.peer[18].bitTorrentApp.bitTorrentClient.contentManager_26  PiecesDownloaded:vector  ETV
attr source  ContentManager_PieceDownloaded
attr title  "Pieces Downloaded, vector"
vector 855  BasicTopology.peer[3].bitTorrentApp.bitTorrentClient.contentManager_26  PiecesDownloaded:vector  ETV
attr source  ContentManager_PieceDownloaded
attr title  "Pieces Downloaded, vector"
vector 919  BasicTopology.peer[11].bitTorrentApp.bitTorrentClient.contentManager_26  PiecesDownloaded:vector  ETV
attr source  ContentManager_PieceDownloaded
attr title  "Pieces Downloaded, vector"
vector 921  BasicTopology.peer[11].bitTorrentApp.bitTorrentClient.contentManager_26  TotalBytesUploaded:vector  ETV
attr source  ContentManager_TotalBytesUploaded
attr title  "Total of Bytes Uploaded, vector"
attr unit  B
vector 1023  BasicTopology.peer[24].bitTorrentApp.bitTorrentClient.contentManager_26  PiecesDownloaded:vector  ETV
attr source  ContentManager_PieceDownloaded
attr title  "Pieces Downloaded, vector"
vector 951  BasicTopology.peer[15].bitTorrentApp.bitTorrentClient.contentManager_26  PiecesDownloaded:vector  ETV
attr source  ContentManager_PieceDownloaded
attr title  "Pieces Downloaded, vector"
vector 857  BasicTopology.peer[3].bitTorrentApp.bitTorrentClient.contentManager_26  TotalBytesUploaded:vector  ETV
attr source  ContentManager_TotalBytesUploaded
attr title  "Total of Bytes Uploaded, vector"
attr unit  B
vector 1015  BasicTopology.peer[23].bitTorrentApp.bitTorrentClient.contentManager_26  PiecesDownloaded:vector  ETV
attr source  ContentManager_PieceDownloaded
attr title  "Pieces Downloaded, vector"
vector 943  BasicTopology.peer[14].bitTorrentApp.bitTorrentClient.contentManager_26  PiecesDownloaded:vector  ETV
attr source  ContentManager_PieceDownloaded
attr title  "Pieces Downloaded, vector"
vector 927  BasicTopology.peer[12].bitTorrentApp.bitTorrentClient.contentManager_26  PiecesDownloaded:vector  ETV
attr source  ContentManager_PieceDownloaded
attr title  "Pieces Downloaded, vector"
vector 873  BasicTopology.peer[5].bitTorrentApp.bitTorrentClient.contentManager_26  TotalBytesUploaded:vector  ETV
attr source  ContentManager_TotalBytesUploaded
attr title  "Total of Bytes Uploaded, vector"
attr unit  B
vector 889  BasicTopology.peer[7].bitTorrentApp.bitTorrentClient.contentManager_26  TotalBytesUploaded:vector  ETV
attr source  ContentManager_TotalBytesUploaded
attr title  "Total of Bytes Uploaded, vector"
attr unit  B
vector 1017  BasicTopology.peer[23].bitTorrentApp.bitTorrentClient.contentManager_26  TotalBytesUploaded:vector  ETV
attr source  ContentManager_TotalBytesUploaded
attr title  "Total of Bytes Uploaded, vector"
attr unit  B
vector 985  BasicTopology.peer[19].bitTorrentApp.bitTorrentClient.contentManager_26  TotalBytesUploaded:vector  ETV
attr source  ContentManager_TotalBytesUploaded
attr title  "Total of Bytes Uploaded, vector"
attr unit  B
vector 977  BasicTopology.peer[18].bitTorrentApp.bitTorrentClient.contentManager_26  TotalBytesUploaded:vector  ETV
attr source  ContentManager_TotalBytesUploaded
attr title  "Total of Bytes Uploaded, vector"
attr unit  B
vector 929  BasicTopology.peer[12].bitTorrentApp.bitTorrentClient.contentManager_26  TotalBytesUploaded:vector  ETV
attr source  ContentManager_TotalBytesUploaded
attr title  "Total of Bytes Uploaded, vector"
attr unit  B
vector 953  BasicTopology.peer[15].bitTorrentApp.bitTorrentClient.contentManager_26  TotalBytesUploaded:vector  ETV
attr source  ContentManager_TotalBytesUploaded
attr title  "Total of Bytes Uploaded, vector"
attr unit  B
vector 905  BasicTopology.peer[9].bitTorrentApp.bitTorrentClient.contentManager_26  TotalBytesUploaded:vector  ETV
attr source  ContentManager_TotalBytesUploaded
attr title  "Total of Bytes Uploaded, vector"
attr unit  B
vector 961  BasicTopology.peer[16].bitTorrentApp.bitTorrentClient.contentManager_26  TotalBytesUploaded:vector  ETV
attr source  ContentManager_TotalBytesUploaded
attr title  "Total of Bytes Uploaded, vector"
attr unit  B
3	85	36001	36001
3	37473279	36067.309411966075	36067.309411966
5	86	36001	36001
5	47727917	36086.105038499371	36086.105038499
7	87	36001	36001
7	71071517	36132.91009633375	36132.910096334
9	88	36001	36001
9	85366156	36164.890696756104	36164.890696756
11	89	36001	36001
11	78360700	36149.081871652366	36149.081871652
13	90	36001	36001
13	84384787	36162.471885443517	36162.471885444
15	91	36001	36001
15	81455678	36156.070478143415	36156.070478143
17	92	36001	36001
17	89795315	36192.942366219697	36192.94236622
19	93	36001	36001
19	75986339	36143.462183190328	36143.46218319
21	94	36001	36001
21	89160454	36175.95782336161	36175.957823362
23	95	36001	36001
23	62267689	36114.719512256206	36114.719512256
25	96	36001	36001
25	67680072	36125.871091459141	36125.871091459
27	97	36001	36001
27	68695299	36128.027570481525	36128.027570482
29	98	36001	36001
29	85632446	36165.626094946832	36165.626094947
31	99	36001	36001
31	76021937	36143.530647005676	36143.530647006
33	100	36001	36001
33	89620369	36191.460247723846	36191.460247724
35	101	36001	36001
35	86682529	36168.380901875562	36168.380901876
37	102	36001	36001
37	83019897	36159.292779044137	36159.292779044
39	103	36001	36001
39	88552651	36174.89455563678	36174.894555637
41	104	36001	36001
41	87441189	36170.819389685229	36170.819389685
43	105	36001	36001
43	50783607	36091.91174119085	36091.911741191
45	106	36001	36001
45	67740576	36126.003709051738	36126.003709052
47	107	36001	36001
47	87495106	36171.262673523458	36171.262673523
49	108	36001	36001
49	78750903	36150.036438611894	36150.036438612
833	393972	36002.6471253832	32768
833	417112	36002.677201923993	65536
833	422683	36002.688605454379	98304
833	422685	36002.690207676844	131072
833	422744	36002.701915511998	163840
833	422747	36002.719217988752	196608
833	422749	36002.719834810702	229376
833	422751	36002.720304908832	262144
833	422840	36002.74183077488	294912
833	422842	36002.741975182061	327680
833	476166	36003.073594620601	360448
833	479284	36003.078622001491	393216
833	479759	36003.079244221779	425984
833	486500	36003.097170496217	458752
833	487812	36003.100600650027	491520
833	491372	36003.117257344365	524288
833	491375	36003.126651146146	557056
833	491377	36003.128907483156	589824
833	491984	36003.140422969388	622592
833	492222	36003.155719093091	655360
833	503840	36003.754925969824	688128
833	554711	36003.932143769833	720896
833	686752	36004.113642291127	753664
833	701495	36004.131666817836	786432
833	702450	36004.13267982547	819200
833	724267	36004.158994437165	851968
833	724340	36004.159099207832	884736
833	726119	36004.161028456221	917504
833	746790	36004.19473309938	950272
833	747655	36004.199869720504	983040
833	747661	36004.216559431996	1015808
833	747663	36004.221106738844	1048576
833	747665	36004.221253206609	1081344
833	747667	36004.231880113139	1114112
833	747669	36004.233426501596	1146880
833	747671	36004.236504907841	1179648
833	747674	36004.247839125478	1212416
833	747676	36004.26517003363	1245184
833	747679	36004.273467258665	1277952
833	747681	36004.285100880029	1310720
833	747683	36004.285221423274	1343488
833	747685	36004.286500370537	1376256
833	762962	36004.502998082191	1409024
833	834864	36004.57363761243	1441792
833	835258	36004.573999123197	1474560
833	850485	36004.598190390967	1507328
833	856756	36004.626403661697	1540096
833	860794	36004.639349126227	1572864
833	860803	36004.639363875172	1605632
833	861021	36004.639766405553	1638400
833	868552	36004.650222285391	1671168
833	870887	36004.653434250792	1703936
833	871923	36004.65509351563	1736704
833	889554	36004.686881074399	1769472
833	889699	36004.687239436337	1802240
833	890461	36004.688509806602	1835008
833	891530	36004.691225240736	1867776
833	898755	36004.702704665958	1900544
833	900238	36004.70530237102	1933312
833	909782	36004.717506262705	1966080
833	916912	36004.730840885182	1998848
833	917203	36004.733994404629	2031616
833	917792	36004.753050083176	2064384
833	920480	36004.840130502191	2097152
833	927244	36004.866463238528	2129920
833	927497	36004.867184702548	2162688
833	927594	36004.867539745194	2195456
833	929490	36004.877909599777	2228224
833	929493	36004.894405585968	2260992
833	929495	36004.895457892953	2293760
833	929497	36004.89571311793	2326528
833	929499	36004.896612611573	2359296
833	929501	36004.898603564491	2392064
833	970675	36005.039399869518	2424832
833	1005240	36005.09867934198	2457600
833	1035734	36005.179229925273	2490368
833	1054859	36005.248601594075	2523136
833	1075899	36005.326255972997	2555904
833	1085505	36005.36184427526	2588672
833	1115521	36005.559760385561	2621440
833	1140919	36005.62636265193	2654208
833	1193314	36005.723154448768	2686976
833	1209717	36005.77727605284	2719744
833	1226377	36005.832788715972	2752512
833	1239317	36005.875323143022	2785280
833	1252399	36005.919225358572	2818048
833	1282577	36005.994646711843	2850816
833	1383068	36006.281566955673	2883584
833	1414443	36006.370433162613	2916352
833	1437595	36006.436586072049	2949120
833	1460914	36006.494851876276	2981888
833	1505322	36006.618782125667	3014656
833	1540257	36006.715377013158	3047424
833	1549679	36006.741230996167	3080192
833	1581883	36006.828336186054	3112960
833	1604857	36006.896932526081	3145728
833	1628458	36006.962494480341	3178496
833	1682790	36007.068961551913	3211264
833	1688945	36007.075830671179	3244032
833	1746720	36007.191413080604	3276800
833	1766877	36007.245735260642	3309568
833	1784208	36007.288434659873	3342336
833	1799414	36007.32878649839	3375104
833	1872333	36007.54063627799	3407872
833	1953157	36007.683735989098	3440640
833	2072837	36007.902069447942	3473408
833	2117897	36008.021171865774	3506176
833	2135821	36008.068763570932	3538944
833	2191804	36008.221707577652	3571712
833	2298432	36008.454133251561	3604480
833	2638125	36009.226054493401	3637248
833	2684718	36009.314622456321	3670016
833	2702508	36009.359801994357	3702784
833	2747270	36009.53564440817	3735552
833	3176003	36010.192801238747	3768320
833	3234513	36010.291206448272	3801088
833	3284851	36010.370895374763	3833856
833	3340229	36010.462505859491	3866624
833	3359809	36010.494225441249	3899392
833	3392651	36010.547944056117	3932160
833	3466297	36010.659888853622	3964928
833	3900529	36011.584896465787	3997696
833	4024814	36011.805811295702	4030464
833	4028504	36011.814148936274	4063232
833	4122437	36011.95867130243	4096000
833	4249034	36012.138628011355	4128768
833	4621216	36012.882028796204	4161536
833	4655801	36012.933504073449	4194304
833	4888667	36013.290810286643	4227072
833	4934787	36013.368296041288	4259840
833	4964707	36013.419287153558	4292608
833	5000852	36013.481830787411	4325376
833	5037921	36013.539036751423	4358144
833	5126101	36013.65312057353	4390912
833	5263707	36013.855904356474	4423680
833	5791699	36014.759144932057	4456448
833	5948139	36015.059745960531	4489216
833	5969435	36015.087207922313	4521984
833	6549620	36015.931025173692	4554752
833	6637546	36016.109172115202	4587520
833	6710059	36016.21825729207	4620288
833	6735946	36016.245981274368	4653056
833	6779067	36016.307914085489	4685824
833	6856429	36016.402617130099	4718592
833	6908446	36016.459329592673	4751360
833	6949399	36016.519829652678	4784128
833	7041807	36016.656239058498	4816896
833	7278397	36017.034715571854	4849664
833	7511018	36017.341297654218	4882432
833	7684693	36017.810086218899	4915200
833	7684804	36017.810401058718	4947968
833	7795922	36018.007623661173	4980736
833	7908163	36018.172919302411	5013504
833	8125136	36018.522719159534	5046272
833	8181224	36018.635959122737	5079040
833	8636660	36019.442056553525	5111808
833	8856110	36019.774627879153	5144576
833	8942289	36019.896465304081	5177344
833	9046123	36020.045487717333	5210112
833	9113369	36020.130115662678	5242880
833	9156537	36020.18585565309	5275648
833	9398547	36020.57262256844	5308416
833	9447136	36020.639191771742	5341184
833	9617697	36021.017030314395	5373952
833	9889137	36021.392143897566	5406720
833	9962886	36021.500810154278	5439488
833	10092043	36021.691431866099	5472256
833	10161998	36021.784562603678	5505024
833	10199101	36021.837236383866	5537792
833	10246962	36021.898817229829	5570560
833	10293484	36021.956391214718	5603328
833	10361576	36022.031644020843	5636096
833	10429965	36022.100261812372	5668864
833	10493057	36022.177616934317	5701632
833	10543556	36022.259772341474	5734400
833	10810174	36022.644804668328	5767168
833	11231388	36023.335840636437	5799936
833	11478986	36023.708025742235	5832704
833	11959555	36024.396446875741	5865472
833	11977397	36024.419800211158	5898240
833	12015622	36024.474013908677	5931008
833	12097651	36024.592134968173	5963776
833	12144832	36024.664273582421	5996544
833	12229401	36024.781558599738	6029312
833	12314096	36024.898339020028	6062080
833	12730668	36025.575452844164	6094848
833	12781960	36025.661153548763	6127616
833	12893820	36025.844904808845	6160384
833	12966426	36025.943094607407	6193152
833	13008592	36026.015098292899	6225920
833	13080775	36026.121414509981	6258688
833	13303005	36026.529668179953	6291456
833	13346606	36026.609445343898	6324224
833	13382822	36026.663413032242	6356992
833	13468741	36026.796615468088	6389760
833	13765643	36027.259645720592	6422528
833	13878371	36027.440163821714	6455296
833	14067843	36027.821752728045	6488064
833	14098262	36027.8761867132	6520832
833	14168472	36028.02414363772	6553600
833	14231516	36028.122226587795	6586368
833	14263786	36028.173158239345	6619136
833	14312957	36028.254903812774	6651904
833	14388584	36028.381157218624	6684672
833	14648233	36028.897058355445	6717440
833	14688607	36028.96570858291	6750208
833	14904414	36029.341553368399	6782976
833	14964263	36029.437079969619	6815744
833	14992653	36029.489116267391	6848512