version 2
run Test-2-20200424-20:16:16-7672
attr configname Test
attr datetime 20200424-20:16:16
attr experiment "\"Simulation Test\""
attr inifile BasicConfig.ini
attr iterationvars ""
attr iterationvars2 $repetition=2
attr measurement "\"Peers: $peers, Rate: $rate\""
attr network BasicTopology
attr processid 7672
attr repetition 2
attr replication #2
attr resultdir results
attr runnumber 2
attr seedset 2

vector 3  BasicTopology.peer[1].bitTorrentApp.bitTorrentClient  DownloadComplete_Test:vector  ETV
attr source  BitTorrentClient_DownloadComplete_Test
attr title  "Descargas completas (prueba), vector"
vector 5  BasicTopology.peer[2].bitTorrentApp.bitTorrentClient  DownloadComplete_Test:vector  ETV
attr source  BitTorrentClient_DownloadComplete_Test
attr title  "Descargas completas (prueba), vector"
vector 7  BasicTopology.peer[3].bitTorrentApp.bitTorrentClient  DownloadComplete_Test:vector  ETV
attr source  BitTorrentClient_DownloadComplete_Test
attr title  "Descargas completas (prueba), vector"
vector 9  BasicTopology.peer[4].bitTorrentApp.bitTorrentClient  DownloadComplete_Test:vector  ETV
attr source  BitTorrentClient_DownloadComplete_Test
attr title  "Descargas completas (prueba), vector"
vector 11  BasicTopology.peer[5].bitTorrentApp.bitTorrentClient  DownloadComplete_Test:vector  ETV
attr source  BitTorrentClient_DownloadComplete_Test
attr title  "Descargas completas (prueba), vector"
vector 13  BasicTopology.peer[6].bitTorrentApp.bitTorrentClient  DownloadComplete_Test:vector  ETV
attr source  BitTorrentClient_DownloadComplete_Test
attr title  "Descargas completas (prueba), vector"
vector 15  BasicTopology.peer[7].bitTorrentApp.bitTorrentClient  DownloadComplete_Test:vector  ETV
attr source  BitTorrentClient_DownloadComplete_Test
attr title  "Descargas completas (prueba), vector"
vector 17  BasicTopology.peer[8].bitTorrentApp.bitTorrentClient  DownloadComplete_Test:vector  ETV
attr source  BitTorrentClient_DownloadComplete_Test
attr title  "Descargas completas (prueba), vector"
vector 19  BasicTopology.peer[9].bitTorrentApp.bitTorrentClient  DownloadComplete_Test:vector  ETV
attr source  BitTorrentClient_DownloadComplete_Test
attr title  "Descargas completas (prueba), vector"
vector 21  BasicTopology.peer[10].bitTorrentApp.bitTorrentClient  DownloadComplete_Test:vector  ETV
attr source  BitTorrentClient_DownloadComplete_Test
attr title  "Descargas completas (prueba), vector"
vector 23  BasicTopology.peer[11].bitTorrentApp.bitTorrentClient  DownloadComplete_Test:vector  ETV
attr source  BitTorrentClient_DownloadComplete_Test
attr title  "Descargas completas (prueba), vector"
vector 25  BasicTopology.peer[12].bitTorrentApp.bitTorrentClient  DownloadComplete_Test:vector  ETV
attr source  BitTorrentClient_DownloadComplete_Test
attr title  "Descargas completas (prueba), vector"
vector 27  BasicTopology.peer[13].bitTorrentApp.bitTorrentClient  DownloadComplete_Test:vector  ETV
attr source  BitTorrentClient_DownloadComplete_Test
attr title  "Descargas completas (prueba), vector"
vector 29  BasicTopology.peer[14].bitTorrentApp.bitTorrentClient  DownloadComplete_Test:vector  ETV
attr source  BitTorrentClient_DownloadComplete_Test
attr title  "Descargas completas (prueba), vector"
vector 31  BasicTopology.peer[15].bitTorrentApp.bitTorrentClient  DownloadComplete_Test:vector  ETV
attr source  BitTorrentClient_DownloadComplete_Test
attr title  "Descargas completas (prueba), vector"
vector 33  BasicTopology.peer[16].bitTorrentApp.bitTorrentClient  DownloadComplete_Test:vector  ETV
attr source  BitTorrentClient_DownloadComplete_Test
attr title  "Descargas completas (prueba), vector"
vector 35  BasicTopology.peer[17].bitTorrentApp.bitTorrentClient  DownloadComplete_Test:vector  ETV
attr source  BitTorrentClient_DownloadComplete_Test
attr title  "Descargas completas (prueba), vector"
vector 37  BasicTopology.peer[18].bitTorrentApp.bitTorrentClient  DownloadComplete_Test:vector  ETV
attr source  BitTorrentClient_DownloadComplete_Test
attr title  "Descargas completas (prueba), vector"
vector 39  BasicTopology.peer[19].bitTorrentApp.bitTorrentClient  DownloadComplete_Test:vector  ETV
attr source  BitTorrentClient_DownloadComplete_Test
attr title  "Descargas completas (prueba), vector"
vector 41  BasicTopology.peer[20].bitTorrentApp.bitTorrentClient  DownloadComplete_Test:vector  ETV
attr source  BitTorrentClient_DownloadComplete_Test
attr title  "Descargas completas (prueba), vector"
vector 43  BasicTopology.peer[21].bitTorrentApp.bitTorrentClient  DownloadComplete_Test:vector  ETV
attr source  BitTorrentClient_DownloadComplete_Test
attr title  "Descargas completas (prueba), vector"
vector 45  BasicTopology.peer[22].bitTorrentApp.bitTorrentClient  DownloadComplete_Test:vector  ETV
attr source  BitTorrentClient_DownloadComplete_Test
attr title  "Descargas completas (prueba), vector"
vector 47  BasicTopology.peer[23].bitTorrentApp.bitTorrentClient  DownloadComplete_Test:vector  ETV
attr source  BitTorrentClient_DownloadComplete_Test
attr title  "Descargas completas (prueba), vector"
vector 49  BasicTopology.peer[24].bitTorrentApp.bitTorrentClient  DownloadComplete_Test:vector  ETV
attr source  BitTorrentClient_DownloadComplete_Test
attr title  "Descargas completas (prueba), vector"
vector 833  BasicTopology.peer[0].bitTorrentApp.bitTorrentClient.contentManager_26  TotalBytesUploaded:vector  ETV
attr source  ContentManager_TotalBytesUploaded
attr title  "Total of Bytes Uploaded, vector"
attr unit  B
vector 912  BasicTopology.peer[10].bitTorrentApp.bitTorrentClient.contentManager_26  TotalBytesDownloaded:vector  ETV
attr source  ContentManager_TotalBytesDownloaded
attr title  "Total of Bytes Downloaded, vector"
attr unit  B
vector 911  BasicTopology.peer[10].bitTorrentApp.bitTorrentClient.contentManager_26  PiecesDownloaded:vector  ETV
attr source  ContentManager_PieceDownloaded
attr title  "Pieces Downloaded, vector"
vector 913  BasicTopology.peer[10].bitTorrentApp.bitTorrentClient.contentManager_26  TotalBytesUploaded:vector  ETV
attr source  ContentManager_TotalBytesUploaded
attr title  "Total of Bytes Uploaded, vector"
attr unit  B
vector 1024  BasicTopology.peer[24].bitTorrentApp.bitTorrentClient.contentManager_26  TotalBytesDownloaded:vector  ETV
attr source  ContentManager_TotalBytesDownloaded
attr title  "Total of Bytes Downloaded, vector"
attr unit  B
vector 992  BasicTopology.peer[20].bitTorrentApp.bitTorrentClient.contentManager_26  TotalBytesDownloaded:vector  ETV
attr source  ContentManager_TotalBytesDownloaded
attr title  "Total of Bytes Downloaded, vector"
attr unit  B
vector 840  BasicTopology.peer[1].bitTorrentApp.bitTorrentClient.contentManager_26  TotalBytesDownloaded:vector  ETV
attr source  ContentManager_TotalBytesDownloaded
attr title  "Total of Bytes Downloaded, vector"
attr unit  B
vector 928  BasicTopology.peer[12].bitTorrentApp.bitTorrentClient.contentManager_26  TotalBytesDownloaded:vector  ETV
attr source  ContentManager_TotalBytesDownloaded
attr title  "Total of Bytes Downloaded, vector"
attr unit  B
vector 839  BasicTopology.peer[1].bitTorrentApp.bitTorrentClient.contentManager_26  PiecesDownloaded:vector  ETV
attr source  ContentManager_PieceDownloaded
attr title  "Pieces Downloaded, vector"
vector 841  BasicTopology.peer[1].bitTorrentApp.bitTorrentClient.contentManager_26  TotalBytesUploaded:vector  ETV
attr source  ContentManager_TotalBytesUploaded
attr title  "Total of Bytes Uploaded, vector"
attr unit  B
vector 864  BasicTopology.peer[4].bitTorrentApp.bitTorrentClient.contentManager_26  TotalBytesDownloaded:vector  ETV
attr source  ContentManager_TotalBytesDownloaded
attr title  "Total of Bytes Downloaded, vector"
attr unit  B
vector 991  BasicTopology.peer[20].bitTorrentApp.bitTorrentClient.contentManager_26  PiecesDownloaded:vector  ETV
attr source  ContentManager_PieceDownloaded
attr title  "Pieces Downloaded, vector"
vector 993  BasicTopology.peer[20].bitTorrentApp.bitTorrentClient.contentManager_26  TotalBytesUploaded:vector  ETV
attr source  ContentManager_TotalBytesUploaded
attr title  "Total of Bytes Uploaded, vector"
attr unit  B
vector 848  BasicTopology.peer[2].bitTorrentApp.bitTorrentClient.contentManager_26  TotalBytesDownloaded:vector  ETV
attr source  ContentManager_TotalBytesDownloaded
attr title  "Total of Bytes Downloaded, vector"
attr unit  B
vector 960  BasicTopology.peer[16].bitTorrentApp.bitTorrentClient.contentManager_26  TotalBytesDownloaded:vector  ETV
attr source  ContentManager_TotalBytesDownloaded
attr title  "Total of Bytes Downloaded, vector"
attr unit  B
vector 1008  BasicTopology.peer[22].bitTorrentApp.bitTorrentClient.contentManager_26  TotalBytesDownloaded:vector  ETV
attr source  ContentManager_TotalBytesDownloaded
attr title  "Total of Bytes Downloaded, vector"
attr unit  B
vector 976  BasicTopology.peer[18].bitTorrentApp.bitTorrentClient.contentManager_26  TotalBytesDownloaded:vector  ETV
attr source  ContentManager_TotalBytesDownloaded
attr title  "Total of Bytes Downloaded, vector"
attr unit  B
vector 856  BasicTopology.peer[3].bitTorrentApp.bitTorrentClient.contentManager_26  TotalBytesDownloaded:vector  ETV
attr source  ContentManager_TotalBytesDownloaded
attr title  "Total of Bytes Downloaded, vector"
attr unit  B
vector 904  BasicTopology.peer[9].bitTorrentApp.bitTorrentClient.contentManager_26  TotalBytesDownloaded:vector  ETV
attr source  ContentManager_TotalBytesDownloaded
attr title  "Total of Bytes Downloaded, vector"
attr unit  B
vector 880  BasicTopology.peer[6].bitTorrentApp.bitTorrentClient.contentManager_26  TotalBytesDownloaded:vector  ETV
attr source  ContentManager_TotalBytesDownloaded
attr title  "Total of Bytes Downloaded, vector"
attr unit  B
vector 952  BasicTopology.peer[15].bitTorrentApp.bitTorrentClient.contentManager_26  TotalBytesDownloaded:vector  ETV
attr source  ContentManager_TotalBytesDownloaded
attr title  "Total of Bytes Downloaded, vector"
attr unit  B
vector 920  BasicTopology.peer[11].bitTorrentApp.bitTorrentClient.contentManager_26  TotalBytesDownloaded:vector  ETV
attr source  ContentManager_TotalBytesDownloaded
attr title  "Total of Bytes Downloaded, vector"
attr unit  B
vector 1007  BasicTopology.peer[22].bitTorrentApp.bitTorrentClient.contentManager_26  PiecesDownloaded:vector  ETV
attr source  ContentManager_PieceDownloaded
attr title  "Pieces Downloaded, vector"
vector 1009  BasicTopology.peer[22].bitTorrentApp.bitTorrentClient.contentManager_26  TotalBytesUploaded:vector  ETV
attr source  ContentManager_TotalBytesUploaded
attr title  "Total of Bytes Uploaded, vector"
attr unit  B
vector 903  BasicTopology.peer[9].bitTorrentApp.bitTorrentClient.contentManager_26  PiecesDownloaded:vector  ETV
attr source  ContentManager_PieceDownloaded
attr title  "Pieces Downloaded, vector"
vector 905  BasicTopology.peer[9].bitTorrentApp.bitTorrentClient.contentManager_26  TotalBytesUploaded:vector  ETV
attr source  ContentManager_TotalBytesUploaded
attr title  "Total of Bytes Uploaded, vector"
attr unit  B
vector 919  BasicTopology.peer[11].bitTorrentApp.bitTorrentClient.contentManager_26  PiecesDownloaded:vector  ETV
attr source  ContentManager_PieceDownloaded
attr title  "Pieces Downloaded, vector"
vector 921  BasicTopology.peer[11].bitTorrentApp.bitTorrentClient.contentManager_26  TotalBytesUploaded:vector  ETV
attr source  ContentManager_TotalBytesUploaded
attr title  "Total of Bytes Uploaded, vector"
attr unit  B
vector 872  BasicTopology.peer[5].bitTorrentApp.bitTorrentClient.contentManager_26  TotalBytesDownloaded:vector  ETV
attr source  ContentManager_TotalBytesDownloaded
attr title  "Total of Bytes Downloaded, vector"
attr unit  B
vector 1000  BasicTopology.peer[21].bitTorrentApp.bitTorrentClient.contentManager_26  TotalBytesDownloaded:vector  ETV
attr source  ContentManager_TotalBytesDownloaded
attr title  "Total of Bytes Downloaded, vector"
attr unit  B
vector 968  BasicTopology.peer[17].bitTorrentApp.bitTorrentClient.contentManager_26  TotalBytesDownloaded:vector  ETV
attr source  ContentManager_TotalBytesDownloaded
attr title  "Total of Bytes Downloaded, vector"
attr unit  B
vector 927  BasicTopology.peer[12].bitTorrentApp.bitTorrentClient.contentManager_26  PiecesDownloaded:vector  ETV
attr source  ContentManager_PieceDownloaded
attr title  "Pieces Downloaded, vector"
vector 929  BasicTopology.peer[12].bitTorrentApp.bitTorrentClient.contentManager_26  TotalBytesUploaded:vector  ETV
attr source  ContentManager_TotalBytesUploaded
attr title  "Total of Bytes Uploaded, vector"
attr unit  B
vector 944  BasicTopology.peer[14].bitTorrentApp.bitTorrentClient.contentManager_26  TotalBytesDownloaded:vector  ETV
attr source  ContentManager_TotalBytesDownloaded
attr title  "Total of Bytes Downloaded, vector"
attr unit  B
vector 936  BasicTopology.peer[13].bitTorrentApp.bitTorrentClient.contentManager_26  TotalBytesDownloaded:vector  ETV
attr source  ContentManager_TotalBytesDownloaded
attr title  "Total of Bytes Downloaded, vector"
attr unit  B
vector 959  BasicTopology.peer[16].bitTorrentApp.bitTorrentClient.contentManager_26  PiecesDownloaded:vector  ETV
attr source  ContentManager_PieceDownloaded
attr title  "Pieces Downloaded, vector"
vector 888  BasicTopology.peer[7].bitTorrentApp.bitTorrentClient.contentManager_26  TotalBytesDownloaded:vector  ETV
attr source  ContentManager_TotalBytesDownloaded
attr title  "Total of Bytes Downloaded, vector"
attr unit  B
vector 855  BasicTopology.peer[3].bitTorrentApp.bitTorrentClient.contentManager_26  PiecesDownloaded:vector  ETV
attr source  ContentManager_PieceDownloaded
attr title  "Pieces Downloaded, vector"
vector 857  BasicTopology.peer[3].bitTorrentApp.bitTorrentClient.contentManager_26  TotalBytesUploaded:vector  ETV
attr source  ContentManager_TotalBytesUploaded
attr title  "Total of Bytes Uploaded, vector"
attr unit  B
vector 999  BasicTopology.peer[21].bitTorrentApp.bitTorrentClient.contentManager_26  PiecesDownloaded:vector  ETV
attr source  ContentManager_PieceDownloaded
attr title  "Pieces Downloaded, vector"
vector 896  BasicTopology.peer[8].bitTorrentApp.bitTorrentClient.contentManager_26  TotalBytesDownloaded:vector  ETV
attr source  ContentManager_TotalBytesDownloaded
attr title  "Total of Bytes Downloaded, vector"
attr unit  B
vector 961  BasicTopology.peer[16].bitTorrentApp.bitTorrentClient.contentManager_26  TotalBytesUploaded:vector  ETV
attr source  ContentManager_TotalBytesUploaded
attr title  "Total of Bytes Uploaded, vector"
attr unit  B
vector 1016  BasicTopology.peer[23].bitTorrentApp.bitTorrentClient.contentManager_26  TotalBytesDownloaded:vector  ETV
attr source  ContentManager_TotalBytesDownloaded
attr title  "Total of Bytes Downloaded, vector"
attr unit  B
vector 943  BasicTopology.peer[14].bitTorrentApp.bitTorrentClient.contentManager_26  PiecesDownloaded:vector  ETV
attr source  ContentManager_PieceDownloaded
attr title  "Pieces Downloaded, vector"
vector 951  BasicTopology.peer[15].bitTorrentApp.bitTorrentClient.contentManager_26  PiecesDownloaded:vector  ETV
attr source  ContentManager_PieceDownloaded
attr title  "Pieces Downloaded, vector"
vector 984  BasicTopology.peer[19].bitTorrentApp.bitTorrentClient.contentManager_26  TotalBytesDownloaded:vector  ETV
attr source  ContentManager_TotalBytesDownloaded
attr title  "Total of Bytes Downloaded, vector"
attr unit  B
vector 1001  BasicTopology.peer[21].bitTorrentApp.bitTorrentClient.contentManager_26  TotalBytesUploaded:vector  ETV
attr source  ContentManager_TotalBytesUploaded
attr title  "Total of Bytes Uploaded, vector"
attr unit  B
vector 887  BasicTopology.peer[7].bitTorrentApp.bitTorrentClient.contentManager_26  PiecesDownloaded:vector  ETV
attr source  ContentManager_PieceDownloaded
attr title  "Pieces Downloaded, vector"
vector 945  BasicTopology.peer[14].bitTorrentApp.bitTorrentClient.contentManager_26  TotalBytesUploaded:vector  ETV
attr source  ContentManager_TotalBytesUploaded
attr title  "Total of Bytes Uploaded, vector"
attr unit  B
vector 1023  BasicTopology.peer[24].bitTorrentApp.bitTorrentClient.contentManager_26  PiecesDownloaded:vector  ETV
attr source  ContentManager_PieceDownloaded
attr title  "Pieces Downloaded, vector"
vector 863  BasicTopology.peer[4].bitTorrentApp.bitTorrentClient.contentManager_26  PiecesDownloaded:vector  ETV
attr source  ContentManager_PieceDownloaded
attr title  "Pieces Downloaded, vector"
vector 847  BasicTopology.peer[2].bitTorrentApp.bitTorrentClient.contentManager_26  PiecesDownloaded:vector  ETV
attr source  ContentManager_PieceDownloaded
attr title  "Pieces Downloaded, vector"
vector 975  BasicTopology.peer[18].bitTorrentApp.bitTorrentClient.contentManager_26  PiecesDownloaded:vector  ETV
attr source  ContentManager_PieceDownloaded
attr title  "Pieces Downloaded, vector"
vector 935  BasicTopology.peer[13].bitTorrentApp.bitTorrentClient.contentManager_26  PiecesDownloaded:vector  ETV
attr source  ContentManager_PieceDownloaded
attr title  "Pieces Downloaded, vector"
vector 871  BasicTopology.peer[5].bitTorrentApp.bitTorrentClient.contentManager_26  PiecesDownloaded:vector  ETV
attr source  ContentManager_PieceDownloaded
attr title  "Pieces Downloaded, vector"
vector 849  BasicTopology.peer[2].bitTorrentApp.bitTorrentClient.contentManager_26  TotalBytesUploaded:vector  ETV
attr source  ContentManager_TotalBytesUploaded
attr title  "Total of Bytes Uploaded, vector"
attr unit  B
vector 1015  BasicTopology.peer[23].bitTorrentApp.bitTorrentClient.contentManager_26  PiecesDownloaded:vector  ETV
attr source  ContentManager_PieceDownloaded
attr title  "Pieces Downloaded, vector"
vector 879  BasicTopology.peer[6].bitTorrentApp.bitTorrentClient.contentManager_26  PiecesDownloaded:vector  ETV
attr source  ContentManager_PieceDownloaded
attr title  "Pieces Downloaded, vector"
vector 983  BasicTopology.peer[19].bitTorrentApp.bitTorrentClient.contentManager_26  PiecesDownloaded:vector  ETV
attr source  ContentManager_PieceDownloaded
attr title  "Pieces Downloaded, vector"
vector 1025  BasicTopology.peer[24].bitTorrentApp.bitTorrentClient.contentManager_26  TotalBytesUploaded:vector  ETV
attr source  ContentManager_TotalBytesUploaded
attr title  "Total of Bytes Uploaded, vector"
attr unit  B
vector 967  BasicTopology.peer[17].bitTorrentApp.bitTorrentClient.contentManager_26  PiecesDownloaded:vector  ETV
attr source  ContentManager_PieceDownloaded
attr title  "Pieces Downloaded, vector"
vector 895  BasicTopology.peer[8].bitTorrentApp.bitTorrentClient.contentManager_26  PiecesDownloaded:vector  ETV
attr source  ContentManager_PieceDownloaded
attr title  "Pieces Downloaded, vector"
vector 889  BasicTopology.peer[7].bitTorrentApp.bitTorrentClient.contentManager_26  TotalBytesUploaded:vector  ETV
attr source  ContentManager_TotalBytesUploaded
attr title  "Total of Bytes Uploaded, vector"
attr unit  B
vector 897  BasicTopology.peer[8].bitTorrentApp.bitTorrentClient.contentManager_26  TotalBytesUploaded:vector  ETV
attr source  ContentManager_TotalBytesUploaded
attr title  "Total of Bytes Uploaded, vector"
attr unit  B
vector 865  BasicTopology.peer[4].bitTorrentApp.bitTorrentClient.contentManager_26  TotalBytesUploaded:vector  ETV
attr source  ContentManager_TotalBytesUploaded
attr title  "Total of Bytes Uploaded, vector"
attr unit  B
vector 873  BasicTopology.peer[5].bitTorrentApp.bitTorrentClient.contentManager_26  TotalBytesUploaded:vector  ETV
attr source  ContentManager_TotalBytesUploaded
attr title  "Total of Bytes Uploaded, vector"
attr unit  B
vector 1017  BasicTopology.peer[23].bitTorrentApp.bitTorrentClient.contentManager_26  TotalBytesUploaded:vector  ETV
attr source  ContentManager_TotalBytesUploaded
attr title  "Total of Bytes Uploaded, vector"
attr unit  B
vector 969  BasicTopology.peer[17].bitTorrentApp.bitTorrentClient.contentManager_26  TotalBytesUploaded:vector  ETV
attr source  ContentManager_TotalBytesUploaded
attr title  "Total of Bytes Uploaded, vector"
attr unit  B
vector 937  BasicTopology.peer[13].bitTorrentApp.bitTorrentClient.contentManager_26  TotalBytesUploaded:vector  ETV
attr source  ContentManager_TotalBytesUploaded
attr title  "Total of Bytes Uploaded, vector"
attr unit  B
vector 977  BasicTopology.peer[18].bitTorrentApp.bitTorrentClient.contentManager_26  TotalBytesUploaded:vector  ETV
attr source  ContentManager_TotalBytesUploaded
attr title  "Total of Bytes Uploaded, vector"
attr unit  B
3	85	36001	36001
3	37468837	36065.02600816652	36065.026008167
5	86	36001	36001
5	52074922	36091.962351020596	36091.962351021
7	87	36001	36001
7	63273367	36113.513529388199	36113.513529388
9	88	36001	36001
9	82238610	36152.992381365575	36152.992381366
11	89	36001	36001
11	82883709	36154.805325271149	36154.805325271
13	90	36001	36001
13	86483977	36164.720393356196	36164.720393356
15	91	36001	36001
15	76319183	36139.147597982478	36139.147597982
17	92	36001	36001
17	87042575	36176.118056160316	36176.11805616
19	93	36001	36001
19	75351255	36137.126030354793	36137.126030355
21	94	36001	36001
21	27758331	36050.224094110753	36050.224094111
23	95	36001	36001
23	73086922	36132.416055386993	36132.416055387
25	96	36001	36001
25	76975923	36140.565326560485	36140.56532656
27	97	36001	36001
27	87351757	36302.516441942537	36302.516441943
29	98	36001	36001
29	75650738	36137.721445718002	36137.721445718
31	99	36001	36001
31	82225961	36152.736861798372	36152.736861798
33	100	36001	36001
33	68832170	36124.411961252671	36124.411961253
35	101	36001	36001
35	80675962	36149.340587803263	36149.340587803
37	102	36001	36001
37	85991400	36163.334850298971	36163.334850299
39	103	36001	36001
39	86226517	36163.767582158609	36163.767582159
41	104	36001	36001
41	37397977	36064.916185969566	36064.91618597
43	105	36001	36001
43	56840885	36100.838878635277	36100.838878635
45	106	36001	36001
45	52169052	36092.140541125201	36092.140541125
47	107	36001	36001
47	69024171	36124.749097541038	36124.749097541
49	108	36001	36001
49	85462501	36160.878017222385	36160.878017222
833	100521	36001.069926615693	32768
833	112751	36001.083040590904	65536
833	122322	36001.096493476023	98304
833	122637	36001.097135729668	131072
833	122708	36001.097425275942	163840
833	123867	36001.099354980696	196608
833	132351	36001.116429624274	229376
833	132680	36001.117269422995	262144
833	180923	36001.166416182407	294912
833	188603	36001.181272384907	327680
833	201030	36001.21734632226	360448
833	208785	36001.243588451269	393216
833	223255	36001.290398518702	425984
833	237577	36001.337007280158	458752
833	256489	36001.399323892565	491520
833	266451	36001.432373738323	524288
833	384317	36001.57590713778	557056
833	395814	36001.590113228575	589824
833	405901	36001.615251695611	622592
833	406087	36001.616323468216	655360
833	407983	36001.625027254041	688128
833	417525	36001.6469074247	720896
833	417872	36001.647637587046	753664
833	417874	36001.647644139729	786432
833	418235	36001.648971077004	819200
833	418620	36001.649513028563	851968
833	508740	36002.485686869552	884736
833	624632	36002.620255615691	917504
833	674450	36002.73479570481	950272
833	679576	36002.747996688962	983040
833	679869	36002.748889714914	1015808
833	686326	36002.764497951223	1048576
833	686403	36002.764689945802	1081344
833	696411	36002.788257092944	1114112
833	700637	36002.797494465926	1146880
833	705042	36002.808173058626	1179648
833	711588	36002.824987968784	1212416
833	714748	36002.834550669239	1245184
833	714817	36002.835063272377	1277952
833	726801	36002.867669628178	1310720
833	751673	36002.956316680389	1343488
833	764740	36003.003564930032	1376256
833	800719	36003.074599459638	1409024
833	813209	36003.129604749009	1441792
833	829912	36003.194010975244	1474560
833	844117	36003.677388390522	1507328
833	845050	36003.680553347048	1540096
833	852168	36003.705735691632	1572864
833	852268	36003.706006351399	1605632
833	853909	36003.711598597537	1638400
833	855442	36003.716675454627	1671168
833	855483	36003.716814782372	1703936
833	855659	36003.717383294006	1736704
833	858680	36003.727613532539	1769472
833	865989	36003.751414728369	1802240
833	866216	36003.752253441812	1835008
833	881204	36003.802172832972	1867776
833	904580	36003.878685975793	1900544
833	935218	36003.969680201246	1933312
833	1302655	36004.585616917156	1966080
833	1302721	36004.58570682587	1998848
833	1305574	36004.592535187594	2031616
833	1305634	36004.592916913503	2064384
833	1316099	36004.611302193759	2097152
833	1318454	36004.616559136288	2129920
833	1318600	36004.617030090388	2162688
833	1321465	36004.625911207993	2195456
833	1322239	36004.628290847406	2228224
833	1323734	36004.63244900778	2260992
833	1323810	36004.632561138844	2293760
833	1324660	36004.634104210535	2326528
833	1336498	36004.647098244231	2359296
833	1337776	36004.649635262039	2392064
833	1340481	36004.6539194921	2424832
833	1343484	36004.657754629329	2457600
833	1345418	36004.660178010844	2490368
833	1346520	36004.661469592031	2523136
833	1347433	36004.662881730598	2555904
833	1352365	36004.674540573186	2588672
833	1358201	36004.684455979244	2621440
833	1364714	36004.695830212959	2654208
833	1366090	36004.698453473887	2686976
833	1375435	36004.709725576664	2719744
833	1378338	36004.714475065449	2752512
833	1380128	36004.717266086215	2785280
833	1386211	36004.731717675114	2818048
833	1386292	36004.732277419873	2850816
833	1390664	36004.747600470772	2883584
833	1391228	36004.749200066779	2916352
833	1392844	36004.754260756654	2949120
833	1412941	36004.821141101471	2981888
833	1435988	36004.896481497025	3014656
833	1457105	36004.959271286526	3047424
833	1818864	36006.114123102094	3080192
833	1819139	36006.114872516612	3112960
833	1861780	36006.236057740395	3145728
833	1884941	36006.294492661392	3178496
833	1893054	36006.316444012934	3211264
833	2130774	36006.880699533634	3244032
833	2205063	36007.027517348316	3276800
833	2357328	36007.308557216153	3309568
833	2403472	36007.432417075017	3342336
833	2458740	36007.542592091028	3375104
833	3058912	36008.6801619395	3407872
833	3177984	36008.984312033545	3440640
833	3397063	36009.417615466585	3473408
833	3458397	36009.571925074745	3506176
833	3745326	36010.112867540291	3538944
833	3783836	36010.187824864133	3571712
833	4517855	36011.755358437709	3604480
833	5040908	36012.838338398318	3637248
833	5142834	36013.001455987118	3670016
833	5336753	36013.338545824146	3702784
833	5433611	36013.57505491028	3735552
833	5535183	36013.765317186181	3768320
833	5856192	36014.206841815678	3801088
833	5902154	36014.272371975473	3833856
833	6181904	36014.706527254375	3866624
833	6567249	36015.423029605911	3899392
833	6692767	36015.750752127255	3932160
833	7714862	36017.539606957727	3964928
833	7897395	36017.86802124114	3997696
833	7976552	36018.000676345018	4030464
833	8004598	36018.054365913277	4063232
833	8121028	36018.274909865921	4096000
833	8387263	36018.718870964943	4128768
833	8537212	36018.941702952447	4161536
833	8985686	36019.696301618283	4194304
833	9160961	36019.958125760549	4227072
833	9178563	36019.983539856488	4259840
833	9182213	36019.989658213063	4292608
833	9285368	36020.164739099412	4325376
833	9811061	36021.134418825466	4358144
833	9882066	36021.277293320282	4390912
833	9965406	36021.395115588999	4423680
833	10018502	36021.48063841895	4456448
833	10100653	36021.598671674721	4489216
833	10554615	36022.217430463136	4521984
833	10624244	36022.326355569816	4554752
833	10902584	36022.789341420374	4587520
833	10911059	36022.804436246541	4620288
833	10914182	36022.811036522204	4653056
833	11152340	36023.230026811634	4685824
833	11243418	36023.402425789444	4718592
833	11250161	36023.413762149408	4751360
833	11847709	36024.37701784659	4784128
833	12553668	36025.554884774279	4816896
833	12803071	36026.006128215947	4849664
833	12831341	36026.074493556319	4882432
833	12856240	36026.14886237282	4915200
833	12901850	36026.223687658626	4947968
833	13204578	36026.68315107764	4980736
833	13454120	36027.082840523479	5013504
833	13557954	36027.351850117688	5046272
833	14268006	36028.578650411029	5079040
833	14390815	36028.795820456674	5111808
833	14521540	36029.000075346262	5144576
833	14597371	36029.121930759263	5177344
833	14925472	36029.693928850477	5210112
833	15200193	36030.202262858555	5242880
833	15535506	36030.805937249642	5275648
833	15581848	36030.87605527861	5308416
833	15628697	36030.945900558803	5341184
833	15696172	36031.051865251832	5373952
833	15722483	36031.094998856146	5406720
833	15726098	36031.101651821037	5439488
833	15733179	36031.113301725036	5472256
833	15733643	36031.113820984266	5505024
833	15749278	36031.138734230258	5537792
833	15749424	36031.138986752228	5570560
833	15764432	36031.162716345307	5603328
833	15765066	36031.163420000971	5636096
833	15768489	36031.167901625425	5668864
833	15775487	36031.177953472328	5701632
833	15775674	36031.178273727514	5734400
833	15819975	36031.240256482474	5767168
833	15914753	36031.376833851273	5799936
833	15961511	36031.450613079567	5832704
833	15963672	36031.453583219065	5865472
833	16334551	36032.110432815616	5898240
833	16415770	36032.226172878794	5931008
833	16672286	36032.579321244409	5963776
833	16754423	36032.694931020101	5996544
833	17137184	36033.344443644693	6029312
833	17149555	36033.3650043562	6062080
833	17150611	36033.366515723965	6094848
833	17154262	36033.371957215876	6127616
833	17375811	36033.740728432144	6160384
833	17428439	36033.821185059658	6193152
833	17494699	36033.923011951887	6225920
833	17542016	36033.999247560228	6258688
833	17572320	36034.066439195228	6291456
833	17583669	36034.104008299775	6324224
833	17607908	36034.175663269034	6356992
833	17626633	36034.225035553924	6389760
833	17798757	36034.560739930451	6422528
833	17848805	36034.641249585016	6455296
833	18198510	36035.218765173638	6488064
833	18246946	36035.306048627127	6520832
833	18299081	36035.38251538108	6553600
833	18327265	36035.423683828367	6586368
833	18371946	36035.494368638889	6619136
833	18425114	36035.575517200367	6651904
833	18603030	36035.823148409781	6684672
833	18617883	36035.846035994649	6717440
833	19428133	36037.070898971083	6750208
833	19545776	36037.277550955646	6782976
833	20153640	36038.241363595976	6815744