version 2
run Test-14-20200424-20:19:28-7796
attr configname Test
attr datetime 20200424-20:19:28
attr experiment "\"Simulation Test\""
attr inifile BasicConfig.ini
attr iterationvars ""
attr iterationvars2 $repetition=14
attr measurement "\"Peers: $peers, Rate: $rate\""
attr network BasicTopology
attr processid 7796
attr repetition 14
attr replication #14
attr resultdir results
attr runnumber 14
attr seedset 14

vector 3  BasicTopology.peer[1].bitTorrentApp.bitTorrentClient  DownloadComplete_Test:vector  ETV
attr source  BitTorrentClient_DownloadComplete_Test
attr title  "Descargas completas (prueba), vector"
vector 5  BasicTopology.peer[2].bitTorrentApp.bitTorrentClient  DownloadComplete_Test:vector  ETV
attr source  BitTorrentClient_DownloadComplete_Test
attr title  "Descargas completas (prueba), vector"
vector 7  BasicTopology.peer[3].bitTorrentApp.bitTorrentClient  DownloadComplete_Test:vector  ETV
attr source  BitTorrentClient_DownloadComplete_Test
attr title  "Descargas completas (prueba), vector"
vector 9  BasicTopology.peer[4].bitTorrentApp.bitTorrentClient  DownloadComplete_Test:vector  ETV
attr source  BitTorrentClient_DownloadComplete_Test
attr title  "Descargas completas (prueba), vector"
vector 11  BasicTopology.peer[5].bitTorrentApp.bitTorrentClient  DownloadComplete_Test:vector  ETV
attr source  BitTorrentClient_DownloadComplete_Test
attr title  "Descargas completas (prueba), vector"
vector 13  BasicTopology.peer[6].bitTorrentApp.bitTorrentClient  DownloadComplete_Test:vector  ETV
attr source  BitTorrentClient_DownloadComplete_Test
attr title  "Descargas completas (prueba), vector"
vector 15  BasicTopology.peer[7].bitTorrentApp.bitTorrentClient  DownloadComplete_Test:vector  ETV
attr source  BitTorrentClient_DownloadComplete_Test
attr title  "Descargas completas (prueba), vector"
vector 17  BasicTopology.peer[8].bitTorrentApp.bitTorrentClient  DownloadComplete_Test:vector  ETV
attr source  BitTorrentClient_DownloadComplete_Test
attr title  "Descargas completas (prueba), vector"
vector 19  BasicTopology.peer[9].bitTorrentApp.bitTorrentClient  DownloadComplete_Test:vector  ETV
attr source  BitTorrentClient_DownloadComplete_Test
attr title  "Descargas completas (prueba), vector"
vector 21  BasicTopology.peer[10].bitTorrentApp.bitTorrentClient  DownloadComplete_Test:vector  ETV
attr source  BitTorrentClient_DownloadComplete_Test
attr title  "Descargas completas (prueba), vector"
vector 23  BasicTopology.peer[11].bitTorrentApp.bitTorrentClient  DownloadComplete_Test:vector  ETV
attr source  BitTorrentClient_DownloadComplete_Test
attr title  "Descargas completas (prueba), vector"
vector 25  BasicTopology.peer[12].bitTorrentApp.bitTorrentClient  DownloadComplete_Test:vector  ETV
attr source  BitTorrentClient_DownloadComplete_Test
attr title  "Descargas completas (prueba), vector"
vector 27  BasicTopology.peer[13].bitTorrentApp.bitTorrentClient  DownloadComplete_Test:vector  ETV
attr source  BitTorrentClient_DownloadComplete_Test
attr title  "Descargas completas (prueba), vector"
vector 29  BasicTopology.peer[14].bitTorrentApp.bitTorrentClient  DownloadComplete_Test:vector  ETV
attr source  BitTorrentClient_DownloadComplete_Test
attr title  "Descargas completas (prueba), vector"
vector 31  BasicTopology.peer[15].bitTorrentApp.bitTorrentClient  DownloadComplete_Test:vector  ETV
attr source  BitTorrentClient_DownloadComplete_Test
attr title  "Descargas completas (prueba), vector"
vector 33  BasicTopology.peer[16].bitTorrentApp.bitTorrentClient  DownloadComplete_Test:vector  ETV
attr source  BitTorrentClient_DownloadComplete_Test
attr title  "Descargas completas (prueba), vector"
vector 35  BasicTopology.peer[17].bitTorrentApp.bitTorrentClient  DownloadComplete_Test:vector  ETV
attr source  BitTorrentClient_DownloadComplete_Test
attr title  "Descargas completas (prueba), vector"
vector 37  BasicTopology.peer[18].bitTorrentApp.bitTorrentClient  DownloadComplete_Test:vector  ETV
attr source  BitTorrentClient_DownloadComplete_Test
attr title  "Descargas completas (prueba), vector"
vector 39  BasicTopology.peer[19].bitTorrentApp.bitTorrentClient  DownloadComplete_Test:vector  ETV
attr source  BitTorrentClient_DownloadComplete_Test
attr title  "Descargas completas (prueba), vector"
vector 41  BasicTopology.peer[20].bitTorrentApp.bitTorrentClient  DownloadComplete_Test:vector  ETV
attr source  BitTorrentClient_DownloadComplete_Test
attr title  "Descargas completas (prueba), vector"
vector 43  BasicTopology.peer[21].bitTorrentApp.bitTorrentClient  DownloadComplete_Test:vector  ETV
attr source  BitTorrentClient_DownloadComplete_Test
attr title  "Descargas completas (prueba), vector"
vector 45  BasicTopology.peer[22].bitTorrentApp.bitTorrentClient  DownloadComplete_Test:vector  ETV
attr source  BitTorrentClient_DownloadComplete_Test
attr title  "Descargas completas (prueba), vector"
vector 47  BasicTopology.peer[23].bitTorrentApp.bitTorrentClient  DownloadComplete_Test:vector  ETV
attr source  BitTorrentClient_DownloadComplete_Test
attr title  "Descargas completas (prueba), vector"
vector 49  BasicTopology.peer[24].bitTorrentApp.bitTorrentClient  DownloadComplete_Test:vector  ETV
attr source  BitTorrentClient_DownloadComplete_Test
attr title  "Descargas completas (prueba), vector"
vector 833  BasicTopology.peer[0].bitTorrentApp.bitTorrentClient.contentManager_26  TotalBytesUploaded:vector  ETV
attr source  ContentManager_TotalBytesUploaded
attr title  "Total of Bytes Uploaded, vector"
attr unit  B
vector 840  BasicTopology.peer[1].bitTorrentApp.bitTorrentClient.contentManager_26  TotalBytesDownloaded:vector  ETV
attr source  ContentManager_TotalBytesDownloaded
attr title  "Total of Bytes Downloaded, vector"
attr unit  B
vector 1000  BasicTopology.peer[21].bitTorrentApp.bitTorrentClient.contentManager_26  TotalBytesDownloaded:vector  ETV
attr source  ContentManager_TotalBytesDownloaded
attr title  "Total of Bytes Downloaded, vector"
attr unit  B
vector 872  BasicTopology.peer[5].bitTorrentApp.bitTorrentClient.contentManager_26  TotalBytesDownloaded:vector  ETV
attr source  ContentManager_TotalBytesDownloaded
attr title  "Total of Bytes Downloaded, vector"
attr unit  B
vector 880  BasicTopology.peer[6].bitTorrentApp.bitTorrentClient.contentManager_26  TotalBytesDownloaded:vector  ETV
attr source  ContentManager_TotalBytesDownloaded
attr title  "Total of Bytes Downloaded, vector"
attr unit  B
vector 839  BasicTopology.peer[1].bitTorrentApp.bitTorrentClient.contentManager_26  PiecesDownloaded:vector  ETV
attr source  ContentManager_PieceDownloaded
attr title  "Pieces Downloaded, vector"
vector 841  BasicTopology.peer[1].bitTorrentApp.bitTorrentClient.contentManager_26  TotalBytesUploaded:vector  ETV
attr source  ContentManager_TotalBytesUploaded
attr title  "Total of Bytes Uploaded, vector"
attr unit  B
vector 920  BasicTopology.peer[11].bitTorrentApp.bitTorrentClient.contentManager_26  TotalBytesDownloaded:vector  ETV
attr source  ContentManager_TotalBytesDownloaded
attr title  "Total of Bytes Downloaded, vector"
attr unit  B
vector 999  BasicTopology.peer[21].bitTorrentApp.bitTorrentClient.contentManager_26  PiecesDownloaded:vector  ETV
attr source  ContentManager_PieceDownloaded
attr title  "Pieces Downloaded, vector"
vector 1001  BasicTopology.peer[21].bitTorrentApp.bitTorrentClient.contentManager_26  TotalBytesUploaded:vector  ETV
attr source  ContentManager_TotalBytesUploaded
attr title  "Total of Bytes Uploaded, vector"
attr unit  B
vector 992  BasicTopology.peer[20].bitTorrentApp.bitTorrentClient.contentManager_26  TotalBytesDownloaded:vector  ETV
attr source  ContentManager_TotalBytesDownloaded
attr title  "Total of Bytes Downloaded, vector"
attr unit  B
vector 936  BasicTopology.peer[13].bitTorrentApp.bitTorrentClient.contentManager_26  TotalBytesDownloaded:vector  ETV
attr source  ContentManager_TotalBytesDownloaded
attr title  "Total of Bytes Downloaded, vector"
attr unit  B
vector 856  BasicTopology.peer[3].bitTorrentApp.bitTorrentClient.contentManager_26  TotalBytesDownloaded:vector  ETV
attr source  ContentManager_TotalBytesDownloaded
attr title  "Total of Bytes Downloaded, vector"
attr unit  B
vector 919  BasicTopology.peer[11].bitTorrentApp.bitTorrentClient.contentManager_26  PiecesDownloaded:vector  ETV
attr source  ContentManager_PieceDownloaded
attr title  "Pieces Downloaded, vector"
vector 921  BasicTopology.peer[11].bitTorrentApp.bitTorrentClient.contentManager_26  TotalBytesUploaded:vector  ETV
attr source  ContentManager_TotalBytesUploaded
attr title  "Total of Bytes Uploaded, vector"
attr unit  B
vector 912  BasicTopology.peer[10].bitTorrentApp.bitTorrentClient.contentManager_26  TotalBytesDownloaded:vector  ETV
attr source  ContentManager_TotalBytesDownloaded
attr title  "Total of Bytes Downloaded, vector"
attr unit  B
vector 952  BasicTopology.peer[15].bitTorrentApp.bitTorrentClient.contentManager_26  TotalBytesDownloaded:vector  ETV
attr source  ContentManager_TotalBytesDownloaded
attr title  "Total of Bytes Downloaded, vector"
attr unit  B
vector 1016  BasicTopology.peer[23].bitTorrentApp.bitTorrentClient.contentManager_26  TotalBytesDownloaded:vector  ETV
attr source  ContentManager_TotalBytesDownloaded
attr title  "Total of Bytes Downloaded, vector"
attr unit  B
vector 944  BasicTopology.peer[14].bitTorrentApp.bitTorrentClient.contentManager_26  TotalBytesDownloaded:vector  ETV
attr source  ContentManager_TotalBytesDownloaded
attr title  "Total of Bytes Downloaded, vector"
attr unit  B
vector 855  BasicTopology.peer[3].bitTorrentApp.bitTorrentClient.contentManager_26  PiecesDownloaded:vector  ETV
attr source  ContentManager_PieceDownloaded
attr title  "Pieces Downloaded, vector"
vector 1015  BasicTopology.peer[23].bitTorrentApp.bitTorrentClient.contentManager_26  PiecesDownloaded:vector  ETV
attr source  ContentManager_PieceDownloaded
attr title  "Pieces Downloaded, vector"
vector 857  BasicTopology.peer[3].bitTorrentApp.bitTorrentClient.contentManager_26  TotalBytesUploaded:vector  ETV
attr source  ContentManager_TotalBytesUploaded
attr title  "Total of Bytes Uploaded, vector"
attr unit  B
vector 911  BasicTopology.peer[10].bitTorrentApp.bitTorrentClient.contentManager_26  PiecesDownloaded:vector  ETV
attr source  ContentManager_PieceDownloaded
attr title  "Pieces Downloaded, vector"
vector 913  BasicTopology.peer[10].bitTorrentApp.bitTorrentClient.contentManager_26  TotalBytesUploaded:vector  ETV
attr source  ContentManager_TotalBytesUploaded
attr title  "Total of Bytes Uploaded, vector"
attr unit  B
vector 904  BasicTopology.peer[9].bitTorrentApp.bitTorrentClient.contentManager_26  TotalBytesDownloaded:vector  ETV
attr source  ContentManager_TotalBytesDownloaded
attr title  "Total of Bytes Downloaded, vector"
attr unit  B
vector 1017  BasicTopology.peer[23].bitTorrentApp.bitTorrentClient.contentManager_26  TotalBytesUploaded:vector  ETV
attr source  ContentManager_TotalBytesUploaded
attr title  "Total of Bytes Uploaded, vector"
attr unit  B
vector 951  BasicTopology.peer[15].bitTorrentApp.bitTorrentClient.contentManager_26  PiecesDownloaded:vector  ETV
attr source  ContentManager_PieceDownloaded
attr title  "Pieces Downloaded, vector"
vector 953  BasicTopology.peer[15].bitTorrentApp.bitTorrentClient.contentManager_26  TotalBytesUploaded:vector  ETV
attr source  ContentManager_TotalBytesUploaded
attr title  "Total of Bytes Uploaded, vector"
attr unit  B
vector 1008  BasicTopology.peer[22].bitTorrentApp.bitTorrentClient.contentManager_26  TotalBytesDownloaded:vector  ETV
attr source  ContentManager_TotalBytesDownloaded
attr title  "Total of Bytes Downloaded, vector"
attr unit  B
vector 848  BasicTopology.peer[2].bitTorrentApp.bitTorrentClient.contentManager_26  TotalBytesDownloaded:vector  ETV
attr source  ContentManager_TotalBytesDownloaded
attr title  "Total of Bytes Downloaded, vector"
attr unit  B
vector 968  BasicTopology.peer[17].bitTorrentApp.bitTorrentClient.contentManager_26  TotalBytesDownloaded:vector  ETV
attr source  ContentManager_TotalBytesDownloaded
attr title  "Total of Bytes Downloaded, vector"
attr unit  B
vector 864  BasicTopology.peer[4].bitTorrentApp.bitTorrentClient.contentManager_26  TotalBytesDownloaded:vector  ETV
attr source  ContentManager_TotalBytesDownloaded
attr title  "Total of Bytes Downloaded, vector"
attr unit  B
vector 879  BasicTopology.peer[6].bitTorrentApp.bitTorrentClient.contentManager_26  PiecesDownloaded:vector  ETV
attr source  ContentManager_PieceDownloaded
attr title  "Pieces Downloaded, vector"
vector 881  BasicTopology.peer[6].bitTorrentApp.bitTorrentClient.contentManager_26  TotalBytesUploaded:vector  ETV
attr source  ContentManager_TotalBytesUploaded
attr title  "Total of Bytes Uploaded, vector"
attr unit  B
vector 896  BasicTopology.peer[8].bitTorrentApp.bitTorrentClient.contentManager_26  TotalBytesDownloaded:vector  ETV
attr source  ContentManager_TotalBytesDownloaded
attr title  "Total of Bytes Downloaded, vector"
attr unit  B
vector 1024  BasicTopology.peer[24].bitTorrentApp.bitTorrentClient.contentManager_26  TotalBytesDownloaded:vector  ETV
attr source  ContentManager_TotalBytesDownloaded
attr title  "Total of Bytes Downloaded, vector"
attr unit  B
vector 863  BasicTopology.peer[4].bitTorrentApp.bitTorrentClient.contentManager_26  PiecesDownloaded:vector  ETV
attr source  ContentManager_PieceDownloaded
attr title  "Pieces Downloaded, vector"
vector 865  BasicTopology.peer[4].bitTorrentApp.bitTorrentClient.contentManager_26  TotalBytesUploaded:vector  ETV
attr source  ContentManager_TotalBytesUploaded
attr title  "Total of Bytes Uploaded, vector"
attr unit  B
vector 976  BasicTopology.peer[18].bitTorrentApp.bitTorrentClient.contentManager_26  TotalBytesDownloaded:vector  ETV
attr source  ContentManager_TotalBytesDownloaded
attr title  "Total of Bytes Downloaded, vector"
attr unit  B
vector 888  BasicTopology.peer[7].bitTorrentApp.bitTorrentClient.contentManager_26  TotalBytesDownloaded:vector  ETV
attr source  ContentManager_TotalBytesDownloaded
attr title  "Total of Bytes Downloaded, vector"
attr unit  B
vector 903  BasicTopology.peer[9].bitTorrentApp.bitTorrentClient.contentManager_26  PiecesDownloaded:vector  ETV
attr source  ContentManager_PieceDownloaded
attr title  "Pieces Downloaded, vector"
vector 1023  BasicTopology.peer[24].bitTorrentApp.bitTorrentClient.contentManager_26  PiecesDownloaded:vector  ETV
attr source  ContentManager_PieceDownloaded
attr title  "Pieces Downloaded, vector"
vector 871  BasicTopology.peer[5].bitTorrentApp.bitTorrentClient.contentManager_26  PiecesDownloaded:vector  ETV
attr source  ContentManager_PieceDownloaded
attr title  "Pieces Downloaded, vector"
vector 1007  BasicTopology.peer[22].bitTorrentApp.bitTorrentClient.contentManager_26  PiecesDownloaded:vector  ETV
attr source  ContentManager_PieceDownloaded
attr title  "Pieces Downloaded, vector"
vector 887  BasicTopology.peer[7].bitTorrentApp.bitTorrentClient.contentManager_26  PiecesDownloaded:vector  ETV
attr source  ContentManager_PieceDownloaded
attr title  "Pieces Downloaded, vector"
vector 847  BasicTopology.peer[2].bitTorrentApp.bitTorrentClient.contentManager_26  PiecesDownloaded:vector  ETV
attr source  ContentManager_PieceDownloaded
attr title  "Pieces Downloaded, vector"
vector 849  BasicTopology.peer[2].bitTorrentApp.bitTorrentClient.contentManager_26  TotalBytesUploaded:vector  ETV
attr source  ContentManager_TotalBytesUploaded
attr title  "Total of Bytes Uploaded, vector"
attr unit  B
vector 984  BasicTopology.peer[19].bitTorrentApp.bitTorrentClient.contentManager_26  TotalBytesDownloaded:vector  ETV
attr source  ContentManager_TotalBytesDownloaded
attr title  "Total of Bytes Downloaded, vector"
attr unit  B
vector 991  BasicTopology.peer[20].bitTorrentApp.bitTorrentClient.contentManager_26  PiecesDownloaded:vector  ETV
attr source  ContentManager_PieceDownloaded
attr title  "Pieces Downloaded, vector"
vector 943  BasicTopology.peer[14].bitTorrentApp.bitTorrentClient.contentManager_26  PiecesDownloaded:vector  ETV
attr source  ContentManager_PieceDownloaded
attr title  "Pieces Downloaded, vector"
vector 935  BasicTopology.peer[13].bitTorrentApp.bitTorrentClient.contentManager_26  PiecesDownloaded:vector  ETV
attr source  ContentManager_PieceDownloaded
attr title  "Pieces Downloaded, vector"
vector 928  BasicTopology.peer[12].bitTorrentApp.bitTorrentClient.contentManager_26  TotalBytesDownloaded:vector  ETV
attr source  ContentManager_TotalBytesDownloaded
attr title  "Total of Bytes Downloaded, vector"
attr unit  B
vector 873  BasicTopology.peer[5].bitTorrentApp.bitTorrentClient.contentManager_26  TotalBytesUploaded:vector  ETV
attr source  ContentManager_TotalBytesUploaded
attr title  "Total of Bytes Uploaded, vector"
attr unit  B
vector 1009  BasicTopology.peer[22].bitTorrentApp.bitTorrentClient.contentManager_26  TotalBytesUploaded:vector  ETV
attr source  ContentManager_TotalBytesUploaded
attr title  "Total of Bytes Uploaded, vector"
attr unit  B
vector 895  BasicTopology.peer[8].bitTorrentApp.bitTorrentClient.contentManager_26  PiecesDownloaded:vector  ETV
attr source  ContentManager_PieceDownloaded
attr title  "Pieces Downloaded, vector"
vector 1025  BasicTopology.peer[24].bitTorrentApp.bitTorrentClient.contentManager_26  TotalBytesUploaded:vector  ETV
attr source  ContentManager_TotalBytesUploaded
attr title  "Total of Bytes Uploaded, vector"
attr unit  B
vector 993  BasicTopology.peer[20].bitTorrentApp.bitTorrentClient.contentManager_26  TotalBytesUploaded:vector  ETV
attr source  ContentManager_TotalBytesUploaded
attr title  "Total of Bytes Uploaded, vector"
attr unit  B
vector 983  BasicTopology.peer[19].bitTorrentApp.bitTorrentClient.contentManager_26  PiecesDownloaded:vector  ETV
attr source  ContentManager_PieceDownloaded
attr title  "Pieces Downloaded, vector"
vector 960  BasicTopology.peer[16].bitTorrentApp.bitTorrentClient.contentManager_26  TotalBytesDownloaded:vector  ETV
attr source  ContentManager_TotalBytesDownloaded
attr title  "Total of Bytes Downloaded, vector"
attr unit  B
vector 959  BasicTopology.peer[16].bitTorrentApp.bitTorrentClient.contentManager_26  PiecesDownloaded:vector  ETV
attr source  ContentManager_PieceDownloaded
attr title  "Pieces Downloaded, vector"
vector 905  BasicTopology.peer[9].bitTorrentApp.bitTorrentClient.contentManager_26  TotalBytesUploaded:vector  ETV
attr source  ContentManager_TotalBytesUploaded
attr title  "Total of Bytes Uploaded, vector"
attr unit  B
vector 967  BasicTopology.peer[17].bitTorrentApp.bitTorrentClient.contentManager_26  PiecesDownloaded:vector  ETV
attr source  ContentManager_PieceDownloaded
attr title  "Pieces Downloaded, vector"
vector 889  BasicTopology.peer[7].bitTorrentApp.bitTorrentClient.contentManager_26  TotalBytesUploaded:vector  ETV
attr source  ContentManager_TotalBytesUploaded
attr title  "Total of Bytes Uploaded, vector"
attr unit  B
vector 975  BasicTopology.peer[18].bitTorrentApp.bitTorrentClient.contentManager_26  PiecesDownloaded:vector  ETV
attr source  ContentManager_PieceDownloaded
attr title  "Pieces Downloaded, vector"
vector 945  BasicTopology.peer[14].bitTorrentApp.bitTorrentClient.contentManager_26  TotalBytesUploaded:vector  ETV
attr source  ContentManager_TotalBytesUploaded
attr title  "Total of Bytes Uploaded, vector"
attr unit  B
vector 927  BasicTopology.peer[12].bitTorrentApp.bitTorrentClient.contentManager_26  PiecesDownloaded:vector  ETV
attr source  ContentManager_PieceDownloaded
attr title  "Pieces Downloaded, vector"
vector 897  BasicTopology.peer[8].bitTorrentApp.bitTorrentClient.contentManager_26  TotalBytesUploaded:vector  ETV
attr source  ContentManager_TotalBytesUploaded
attr title  "Total of Bytes Uploaded, vector"
attr unit  B
vector 969  BasicTopology.peer[17].bitTorrentApp.bitTorrentClient.contentManager_26  TotalBytesUploaded:vector  ETV
attr source  ContentManager_TotalBytesUploaded
attr title  "Total of Bytes Uploaded, vector"
attr unit  B
vector 977  BasicTopology.peer[18].bitTorrentApp.bitTorrentClient.contentManager_26  TotalBytesUploaded:vector  ETV
attr source  ContentManager_TotalBytesUploaded
attr title  "Total of Bytes Uploaded, vector"
attr unit  B
3	85	36001	36001
3	44274563	36075.056884162551	36075.056884163
5	86	36001	36001
5	60155165	36104.80176413449	36104.801764134
7	87	36001	36001
7	67777658	36120.476554584538	36120.476554585
9	88	36001	36001
9	82607549	36173.542393007257	36173.542393007
11	89	36001	36001
11	77198091	36141.207499309105	36141.207499309
13	90	36001	36001
13	79757165	36149.703471950486	36149.70347195
15	91	36001	36001
15	67315013	36119.582791783556	36119.582791784
17	92	36001	36001
17	72804806	36131.267514555765	36131.267514556
19	93	36001	36001
19	69585738	36124.115457442644	36124.115457443
21	94	36001	36001
21	76592284	36139.762857502633	36139.762857503
23	95	36001	36001
23	47624439	36080.944564965987	36080.944564966
25	96	36001	36001
25	81063130	36163.739344692748	36163.739344693
27	97	36001	36001
27	83793776	36304.267449854923	36304.267449855
29	98	36001	36001
29	79857007	36150.178277789003	36150.178277789
31	99	36001	36001
31	80571398	36158.807211249779	36158.80721125
33	100	36001	36001
33	71401014	36128.224551717214	36128.224551717
35	101	36001	36001
35	77381514	36141.837923130396	36141.83792313
37	102	36001	36001
37	82404561	36172.963449975744	36172.963449976
39	103	36001	36001
39	77336817	36141.437050736298	36141.437050736
41	104	36001	36001
41	61849507	36108.329863073496	36108.329863073
43	105	36001	36001
43	75425394	36137.257140480862	36137.257140481
45	106	36001	36001
45	58961280	36102.455787841776	36102.455787842
47	107	36001	36001
47	73921523	36133.95124837515	36133.951248375
49	108	36001	36001
49	76684664	36139.989823770362	36139.98982377
833	96165	36001.067380481112	32768
833	102994	36001.074409174652	65536
833	103797	36001.075439109335	98304
833	103911	36001.075629736879	131072
833	105586	36001.078433123464	163840
833	115600	36001.091326591469	196608
833	119931	36001.108605667983	229376
833	119933	36001.108962229654	262144
833	119936	36001.110732938647	294912
833	119946	36001.115123076036	327680
833	176923	36001.202366193138	360448
833	178142	36001.206018620817	393216
833	178252	36001.206463383465	425984
833	180211	36001.213348322172	458752
833	180622	36001.214472683723	491520
833	180667	36001.214563733734	524288
833	185183	36001.227092579522	557056
833	187827	36001.24849370731	589824
833	187829	36001.249370514873	622592
833	187856	36001.26963364087	655360
833	289316	36001.739072592888	688128
833	290584	36001.743023744236	720896
833	290758	36001.744390170123	753664
833	293426	36001.75016499102	786432
833	301206	36001.769410050693	819200
833	310901	36001.792710084453	851968
833	311095	36001.793260039064	884736
833	317176	36001.808653959128	917504
833	317206	36001.808771873919	950272
833	317886	36001.8103058649	983040
833	412268	36002.473119662276	1015808
833	438651	36002.511308976189	1048576
833	503039	36002.599731603731	1081344
833	503073	36002.599770030096	1114112
833	503734	36002.601212534598	1146880
833	513512	36002.622824490031	1179648
833	523003	36002.641828450419	1212416
833	533356	36002.655644437792	1245184
833	539189	36002.666146030547	1277952
833	539305	36002.666288009949	1310720
833	539764	36002.666838928251	1343488
833	540319	36002.668091796395	1376256
833	660477	36003.093855576287	1409024
833	719070	36003.225614916822	1441792
833	768604	36003.582384066811	1474560
833	773058	36003.595450747196	1507328
833	785624	36003.635258601756	1540096
833	836427	36003.841846734858	1572864
833	894695	36003.972093876116	1605632
833	998300	36004.08081320609	1638400
833	998527	36004.081069434262	1671168
833	1003214	36004.086556814373	1703936
833	1016938	36004.101907169669	1736704
833	1034921	36004.127551657672	1769472
833	1059012	36004.153762147828	1802240
833	1067930	36004.176043267159	1835008
833	1073828	36004.201654727414	1867776
833	1073904	36004.201845704663	1900544
833	1076133	36004.210945942867	1933312
833	1081158	36004.230989121437	1966080
833	1081161	36004.234738681331	1998848
833	1081163	36004.238870738219	2031616
833	1081165	36004.258612399572	2064384
833	1081168	36004.278550204887	2097152
833	1085705	36004.289979382948	2129920
833	1086072	36004.290813442329	2162688
833	1089807	36004.302132284012	2195456
833	1090106	36004.302648187881	2228224
833	1094505	36004.314512537827	2260992
833	1100347	36004.331763132402	2293760
833	1103623	36004.339017042217	2326528
833	1103798	36004.33938001987	2359296
833	1108453	36004.352392761812	2392064
833	1115080	36004.36699669436	2424832
833	1118579	36004.37404086391	2457600
833	1125972	36004.394699759297	2490368
833	1132060	36004.409564170189	2523136
833	1132797	36004.411292640967	2555904
833	1133290	36004.41285780985	2588672
833	1133849	36004.414412953074	2621440
833	1154934	36004.463739132158	2654208
833	1168183	36004.494339159762	2686976
833	1170218	36004.49909523384	2719744
833	1170556	36004.499950687496	2752512
833	1175640	36004.504574072481	2785280
833	1239329	36004.647809708474	2818048
833	1248360	36004.672106134212	2850816
833	1277549	36004.730070328373	2883584
833	1294914	36004.800208249167	2916352
833	1479914	36005.429812869723	2949120
833	1609754	36005.747306328609	2981888
833	1639378	36005.952779597305	3014656
833	1673082	36006.031462983269	3047424
833	1719160	36006.166365114532	3080192
833	2117410	36007.17235275278	3112960
833	2139654	36007.243132909224	3145728
833	2574493	36008.135648086494	3178496
833	2574607	36008.135803014553	3211264
833	2593351	36008.163578356533	3244032
833	2602656	36008.180512956914	3276800
833	2602750	36008.180714420576	3309568
833	2604934	36008.185787415021	3342336
833	2605190	36008.186574404116	3375104
833	2605531	36008.187346266217	3407872
833	2655318	36008.276479079959	3440640
833	2692084	36008.34506101988	3473408
833	2747851	36008.445183250219	3506176
833	2955041	36008.812120253267	3538944
833	2972911	36008.851722937854	3571712
833	2974834	36008.855841372787	3604480
833	2976944	36008.859372986547	3637248
833	2977310	36008.860163191678	3670016
833	2980561	36008.865162017452	3702784
833	2986171	36008.877146032853	3735552
833	2988637	36008.883174507484	3768320
833	2991862	36008.890282146884	3801088
833	3130023	36009.166747273759	3833856
833	3133967	36009.180296292052	3866624
833	3161830	36009.324594590907	3899392
833	3221164	36009.44736055428	3932160
833	3357443	36009.721602140754	3964928
833	3673969	36010.212869243528	3997696
833	3683260	36010.224936066206	4030464
833	3705156	36010.257253191962	4063232
833	3725149	36010.286283779341	4096000
833	3750953	36010.321959469216	4128768
833	3848138	36010.489559778718	4161536
833	4047244	36010.956260630835	4194304
833	4311497	36011.3477698445	4227072
833	4316017	36011.354944947131	4259840
833	4331393	36011.379438983336	4292608
833	4348056	36011.406385051285	4325376
833	4355899	36011.432329049394	4358144
833	4362401	36011.454347694058	4390912
833	4368821	36011.475824146398	4423680
833	4380238	36011.509529857559	4456448
833	4391782	36011.541184175138	4489216
833	5042168	36012.552372562292	4521984
833	5085225	36012.60169250663	4554752
833	5128946	36012.656529441021	4587520
833	5168014	36012.71063034204	4620288
833	5749021	36013.669261840535	4653056
833	5763225	36013.69440380954	4685824
833	5833410	36013.827749702277	4718592
833	5883390	36013.89774767334	4751360
833	6374369	36014.741958781683	4784128
833	6383463	36014.754812561063	4816896
833	7061325	36015.841397416173	4849664
833	7095499	36015.886866945049	4882432
833	7802324	36016.989093667853	4915200
833	8156722	36017.543275537199	4947968
833	8475685	36018.064300098635	4980736
833	8520140	36018.142585274466	5013504
833	8782317	36018.602137711648	5046272
833	9155343	36019.209984878992	5079040
833	9195359	36019.268327500618	5111808
833	9502472	36019.794273271983	5144576
833	9541135	36019.852648454438	5177344
833	9572906	36019.9713647144	5210112
833	9592156	36020.004505900096	5242880
833	9799873	36020.369251441696	5275648
833	9860679	36020.451449116146	5308416
833	9921799	36020.524362719334	5341184
833	9975773	36020.586283318351	5373952
833	10230892	36021.105114845796	5406720
833	10249941	36021.147694016184	5439488
833	10365128	36021.396309371136	5472256
833	10416654	36021.468983663397	5505024
833	10515235	36021.603466115318	5537792
833	10550430	36021.651661569978	5570560
833	10692205	36021.838121612937	5603328
833	11008346	36022.18797542317	5636096
833	11041056	36022.248137476633	5668864
833	11085855	36022.321775237821	5701632
833	11117125	36022.385724858405	5734400
833	11351638	36022.750812713749	5767168
833	11991127	36023.826405649036	5799936
833	12633993	36024.780412006993	5832704
833	12642862	36024.797346021826	5865472
833	12893166	36025.187588621244	5898240
833	12945831	36025.267504736452	5931008
833	13033822	36025.398234486419	5963776
833	13705372	36026.493573715341	5996544
833	13983187	36026.949736542685	6029312
833	14238378	36027.441532740735	6062080
833	14283145	36027.523845463397	6094848
833	14575379	36028.026123499406	6127616
833	14662611	36028.146176791581	6160384
833	14847156	36028.463130862196	6193152
833	14888143	36028.535464541524	6225920
833	14897936	36028.550503685048	6258688
833	14939463	36028.614713878933	6291456
833	14963418	36028.663862888284	6324224
833	14981648	36028.701979386054	6356992
833	15374134	36029.315183020147	6389760
833	15685637	36029.759245559883	6422528
833	15736799	36029.833835386738	6455296
833	15984087	36030.307362660779	6488064
833	16104401	36030.50422120037	6520832
833	16300992	36030.843346470852	6553600
833	16369620	36030.941925316149	6586368
833	16400848	36030.980882832956	6619136
833	16407924	36030.988885662359	6651904
833	16465775	36031.070605688898	6684672
833	16465978	36031.070929523234	6717440
833	16469618	36031.075643429296	6750208
833	16469844	36031.075898699378	6782976
833	16470445	36031.076585856378	6815744
833	16482653	36031.090910500874	6848512
833	16486901	36031.09640201566	6881280
833	16491897	36031.103479128567	6914048
833	16492279	36031.1041440078	6946816
833	16492557	36031.104554806119	6979584
833	17078832	36032.03149898095	7012352