version 2
run Test-16-20200424-20:19:53-7817
attr configname Test
attr datetime 20200424-20:19:53
attr experiment "\"Simulation Test\""
attr inifile BasicConfig.ini
attr iterationvars ""
attr iterationvars2 $repetition=16
attr measurement "\"Peers: $peers, Rate: $rate\""
attr network BasicTopology
attr processid 7817
attr repetition 16
attr replication #16
attr resultdir results
attr runnumber 16
attr seedset 16

vector 3  BasicTopology.peer[1].bitTorrentApp.bitTorrentClient  DownloadComplete_Test:vector  ETV
attr source  BitTorrentClient_DownloadComplete_Test
attr title  "Descargas completas (prueba), vector"
vector 5  BasicTopology.peer[2].bitTorrentApp.bitTorrentClient  DownloadComplete_Test:vector  ETV
attr source  BitTorrentClient_DownloadComplete_Test
attr title  "Descargas completas (prueba), vector"
vector 7  BasicTopology.peer[3].bitTorrentApp.bitTorrentClient  DownloadComplete_Test:vector  ETV
attr source  BitTorrentClient_DownloadComplete_Test
attr title  "Descargas completas (prueba), vector"
vector 9  BasicTopology.peer[4].bitTorrentApp.bitTorrentClient  DownloadComplete_Test:vector  ETV
attr source  BitTorrentClient_DownloadComplete_Test
attr title  "Descargas completas (prueba), vector"
vector 11  BasicTopology.peer[5].bitTorrentApp.bitTorrentClient  DownloadComplete_Test:vector  ETV
attr source  BitTorrentClient_DownloadComplete_Test
attr title  "Descargas completas (prueba), vector"
vector 13  BasicTopology.peer[6].bitTorrentApp.bitTorrentClient  DownloadComplete_Test:vector  ETV
attr source  BitTorrentClient_DownloadComplete_Test
attr title  "Descargas completas (prueba), vector"
vector 15  BasicTopology.peer[7].bitTorrentApp.bitTorrentClient  DownloadComplete_Test:vector  ETV
attr source  BitTorrentClient_DownloadComplete_Test
attr title  "Descargas completas (prueba), vector"
vector 17  BasicTopology.peer[8].bitTorrentApp.bitTorrentClient  DownloadComplete_Test:vector  ETV
attr source  BitTorrentClient_DownloadComplete_Test
attr title  "Descargas completas (prueba), vector"
vector 19  BasicTopology.peer[9].bitTorrentApp.bitTorrentClient  DownloadComplete_Test:vector  ETV
attr source  BitTorrentClient_DownloadComplete_Test
attr title  "Descargas completas (prueba), vector"
vector 21  BasicTopology.peer[10].bitTorrentApp.bitTorrentClient  DownloadComplete_Test:vector  ETV
attr source  BitTorrentClient_DownloadComplete_Test
attr title  "Descargas completas (prueba), vector"
vector 23  BasicTopology.peer[11].bitTorrentApp.bitTorrentClient  DownloadComplete_Test:vector  ETV
attr source  BitTorrentClient_DownloadComplete_Test
attr title  "Descargas completas (prueba), vector"
vector 25  BasicTopology.peer[12].bitTorrentApp.bitTorrentClient  DownloadComplete_Test:vector  ETV
attr source  BitTorrentClient_DownloadComplete_Test
attr title  "Descargas completas (prueba), vector"
vector 27  BasicTopology.peer[13].bitTorrentApp.bitTorrentClient  DownloadComplete_Test:vector  ETV
attr source  BitTorrentClient_DownloadComplete_Test
attr title  "Descargas completas (prueba), vector"
vector 29  BasicTopology.peer[14].bitTorrentApp.bitTorrentClient  DownloadComplete_Test:vector  ETV
attr source  BitTorrentClient_DownloadComplete_Test
attr title  "Descargas completas (prueba), vector"
vector 31  BasicTopology.peer[15].bitTorrentApp.bitTorrentClient  DownloadComplete_Test:vector  ETV
attr source  BitTorrentClient_DownloadComplete_Test
attr title  "Descargas completas (prueba), vector"
vector 33  BasicTopology.peer[16].bitTorrentApp.bitTorrentClient  DownloadComplete_Test:vector  ETV
attr source  BitTorrentClient_DownloadComplete_Test
attr title  "Descargas completas (prueba), vector"
vector 35  BasicTopology.peer[17].bitTorrentApp.bitTorrentClient  DownloadComplete_Test:vector  ETV
attr source  BitTorrentClient_DownloadComplete_Test
attr title  "Descargas completas (prueba), vector"
vector 37  BasicTopology.peer[18].bitTorrentApp.bitTorrentClient  DownloadComplete_Test:vector  ETV
attr source  BitTorrentClient_DownloadComplete_Test
attr title  "Descargas completas (prueba), vector"
vector 39  BasicTopology.peer[19].bitTorrentApp.bitTorrentClient  DownloadComplete_Test:vector  ETV
attr source  BitTorrentClient_DownloadComplete_Test
attr title  "Descargas completas (prueba), vector"
vector 41  BasicTopology.peer[20].bitTorrentApp.bitTorrentClient  DownloadComplete_Test:vector  ETV
attr source  BitTorrentClient_DownloadComplete_Test
attr title  "Descargas completas (prueba), vector"
vector 43  BasicTopology.peer[21].bitTorrentApp.bitTorrentClient  DownloadComplete_Test:vector  ETV
attr source  BitTorrentClient_DownloadComplete_Test
attr title  "Descargas completas (prueba), vector"
vector 45  BasicTopology.peer[22].bitTorrentApp.bitTorrentClient  DownloadComplete_Test:vector  ETV
attr source  BitTorrentClient_DownloadComplete_Test
attr title  "Descargas completas (prueba), vector"
vector 47  BasicTopology.peer[23].bitTorrentApp.bitTorrentClient  DownloadComplete_Test:vector  ETV
attr source  BitTorrentClient_DownloadComplete_Test
attr title  "Descargas completas (prueba), vector"
vector 49  BasicTopology.peer[24].bitTorrentApp.bitTorrentClient  DownloadComplete_Test:vector  ETV
attr source  BitTorrentClient_DownloadComplete_Test
attr title  "Descargas completas (prueba), vector"
vector 833  BasicTopology.peer[0].bitTorrentApp.bitTorrentClient.contentManager_26  TotalBytesUploaded:vector  ETV
attr source  ContentManager_TotalBytesUploaded
attr title  "Total of Bytes Uploaded, vector"
attr unit  B
vector 1000  BasicTopology.peer[21].bitTorrentApp.bitTorrentClient.contentManager_26  TotalBytesDownloaded:vector  ETV
attr source  ContentManager_TotalBytesDownloaded
attr title  "Total of Bytes Downloaded, vector"
attr unit  B
vector 912  BasicTopology.peer[10].bitTorrentApp.bitTorrentClient.contentManager_26  TotalBytesDownloaded:vector  ETV
attr source  ContentManager_TotalBytesDownloaded
attr title  "Total of Bytes Downloaded, vector"
attr unit  B
vector 992  BasicTopology.peer[20].bitTorrentApp.bitTorrentClient.contentManager_26  TotalBytesDownloaded:vector  ETV
attr source  ContentManager_TotalBytesDownloaded
attr title  "Total of Bytes Downloaded, vector"
attr unit  B
vector 1024  BasicTopology.peer[24].bitTorrentApp.bitTorrentClient.contentManager_26  TotalBytesDownloaded:vector  ETV
attr source  ContentManager_TotalBytesDownloaded
attr title  "Total of Bytes Downloaded, vector"
attr unit  B
vector 999  BasicTopology.peer[21].bitTorrentApp.bitTorrentClient.contentManager_26  PiecesDownloaded:vector  ETV
attr source  ContentManager_PieceDownloaded
attr title  "Pieces Downloaded, vector"
vector 1001  BasicTopology.peer[21].bitTorrentApp.bitTorrentClient.contentManager_26  TotalBytesUploaded:vector  ETV
attr source  ContentManager_TotalBytesUploaded
attr title  "Total of Bytes Uploaded, vector"
attr unit  B
vector 840  BasicTopology.peer[1].bitTorrentApp.bitTorrentClient.contentManager_26  TotalBytesDownloaded:vector  ETV
attr source  ContentManager_TotalBytesDownloaded
attr title  "Total of Bytes Downloaded, vector"
attr unit  B
vector 839  BasicTopology.peer[1].bitTorrentApp.bitTorrentClient.contentManager_26  PiecesDownloaded:vector  ETV
attr source  ContentManager_PieceDownloaded
attr title  "Pieces Downloaded, vector"
vector 841  BasicTopology.peer[1].bitTorrentApp.bitTorrentClient.contentManager_26  TotalBytesUploaded:vector  ETV
attr source  ContentManager_TotalBytesUploaded
attr title  "Total of Bytes Uploaded, vector"
attr unit  B
vector 952  BasicTopology.peer[15].bitTorrentApp.bitTorrentClient.contentManager_26  TotalBytesDownloaded:vector  ETV
attr source  ContentManager_TotalBytesDownloaded
attr title  "Total of Bytes Downloaded, vector"
attr unit  B
vector 911  BasicTopology.peer[10].bitTorrentApp.bitTorrentClient.contentManager_26  PiecesDownloaded:vector  ETV
attr source  ContentManager_PieceDownloaded
attr title  "Pieces Downloaded, vector"
vector 913  BasicTopology.peer[10].bitTorrentApp.bitTorrentClient.contentManager_26  TotalBytesUploaded:vector  ETV
attr source  ContentManager_TotalBytesUploaded
attr title  "Total of Bytes Uploaded, vector"
attr unit  B
vector 872  BasicTopology.peer[5].bitTorrentApp.bitTorrentClient.contentManager_26  TotalBytesDownloaded:vector  ETV
attr source  ContentManager_TotalBytesDownloaded
attr title  "Total of Bytes Downloaded, vector"
attr unit  B
vector 880  BasicTopology.peer[6].bitTorrentApp.bitTorrentClient.contentManager_26  TotalBytesDownloaded:vector  ETV
attr source  ContentManager_TotalBytesDownloaded
attr title  "Total of Bytes Downloaded, vector"
attr unit  B
vector 856  BasicTopology.peer[3].bitTorrentApp.bitTorrentClient.contentManager_26  TotalBytesDownloaded:vector  ETV
attr source  ContentManager_TotalBytesDownloaded
attr title  "Total of Bytes Downloaded, vector"
attr unit  B
vector 1016  BasicTopology.peer[23].bitTorrentApp.bitTorrentClient.contentManager_26  TotalBytesDownloaded:vector  ETV
attr source  ContentManager_TotalBytesDownloaded
attr title  "Total of Bytes Downloaded, vector"
attr unit  B
vector 936  BasicTopology.peer[13].bitTorrentApp.bitTorrentClient.contentManager_26  TotalBytesDownloaded:vector  ETV
attr source  ContentManager_TotalBytesDownloaded
attr title  "Total of Bytes Downloaded, vector"
attr unit  B
vector 864  BasicTopology.peer[4].bitTorrentApp.bitTorrentClient.contentManager_26  TotalBytesDownloaded:vector  ETV
attr source  ContentManager_TotalBytesDownloaded
attr title  "Total of Bytes Downloaded, vector"
attr unit  B
vector 1008  BasicTopology.peer[22].bitTorrentApp.bitTorrentClient.contentManager_26  TotalBytesDownloaded:vector  ETV
attr source  ContentManager_TotalBytesDownloaded
attr title  "Total of Bytes Downloaded, vector"
attr unit  B
vector 944  BasicTopology.peer[14].bitTorrentApp.bitTorrentClient.contentManager_26  TotalBytesDownloaded:vector  ETV
attr source  ContentManager_TotalBytesDownloaded
attr title  "Total of Bytes Downloaded, vector"
attr unit  B
vector 1007  BasicTopology.peer[22].bitTorrentApp.bitTorrentClient.contentManager_26  PiecesDownloaded:vector  ETV
attr source  ContentManager_PieceDownloaded
attr title  "Pieces Downloaded, vector"
vector 1009  BasicTopology.peer[22].bitTorrentApp.bitTorrentClient.contentManager_26  TotalBytesUploaded:vector  ETV
attr source  ContentManager_TotalBytesUploaded
attr title  "Total of Bytes Uploaded, vector"
attr unit  B
vector 855  BasicTopology.peer[3].bitTorrentApp.bitTorrentClient.contentManager_26  PiecesDownloaded:vector  ETV
attr source  ContentManager_PieceDownloaded
attr title  "Pieces Downloaded, vector"
vector 857  BasicTopology.peer[3].bitTorrentApp.bitTorrentClient.contentManager_26  TotalBytesUploaded:vector  ETV
attr source  ContentManager_TotalBytesUploaded
attr title  "Total of Bytes Uploaded, vector"
attr unit  B
vector 863  BasicTopology.peer[4].bitTorrentApp.bitTorrentClient.contentManager_26  PiecesDownloaded:vector  ETV
attr source  ContentManager_PieceDownloaded
attr title  "Pieces Downloaded, vector"
vector 865  BasicTopology.peer[4].bitTorrentApp.bitTorrentClient.contentManager_26  TotalBytesUploaded:vector  ETV
attr source  ContentManager_TotalBytesUploaded
attr title  "Total of Bytes Uploaded, vector"
attr unit  B
vector 991  BasicTopology.peer[20].bitTorrentApp.bitTorrentClient.contentManager_26  PiecesDownloaded:vector  ETV
attr source  ContentManager_PieceDownloaded
attr title  "Pieces Downloaded, vector"
vector 993  BasicTopology.peer[20].bitTorrentApp.bitTorrentClient.contentManager_26  TotalBytesUploaded:vector  ETV
attr source  ContentManager_TotalBytesUploaded
attr title  "Total of Bytes Uploaded, vector"
attr unit  B
vector 935  BasicTopology.peer[13].bitTorrentApp.bitTorrentClient.contentManager_26  PiecesDownloaded:vector  ETV
attr source  ContentManager_PieceDownloaded
attr title  "Pieces Downloaded, vector"
vector 937  BasicTopology.peer[13].bitTorrentApp.bitTorrentClient.contentManager_26  TotalBytesUploaded:vector  ETV
attr source  ContentManager_TotalBytesUploaded
attr title  "Total of Bytes Uploaded, vector"
attr unit  B
vector 968  BasicTopology.peer[17].bitTorrentApp.bitTorrentClient.contentManager_26  TotalBytesDownloaded:vector  ETV
attr source  ContentManager_TotalBytesDownloaded
attr title  "Total of Bytes Downloaded, vector"
attr unit  B
vector 888  BasicTopology.peer[7].bitTorrentApp.bitTorrentClient.contentManager_26  TotalBytesDownloaded:vector  ETV
attr source  ContentManager_TotalBytesDownloaded
attr title  "Total of Bytes Downloaded, vector"
attr unit  B
vector 848  BasicTopology.peer[2].bitTorrentApp.bitTorrentClient.contentManager_26  TotalBytesDownloaded:vector  ETV
attr source  ContentManager_TotalBytesDownloaded
attr title  "Total of Bytes Downloaded, vector"
attr unit  B
vector 960  BasicTopology.peer[16].bitTorrentApp.bitTorrentClient.contentManager_26  TotalBytesDownloaded:vector  ETV
attr source  ContentManager_TotalBytesDownloaded
attr title  "Total of Bytes Downloaded, vector"
attr unit  B
vector 920  BasicTopology.peer[11].bitTorrentApp.bitTorrentClient.contentManager_26  TotalBytesDownloaded:vector  ETV
attr source  ContentManager_TotalBytesDownloaded
attr title  "Total of Bytes Downloaded, vector"
attr unit  B
vector 904  BasicTopology.peer[9].bitTorrentApp.bitTorrentClient.contentManager_26  TotalBytesDownloaded:vector  ETV
attr source  ContentManager_TotalBytesDownloaded
attr title  "Total of Bytes Downloaded, vector"
attr unit  B
vector 1023  BasicTopology.peer[24].bitTorrentApp.bitTorrentClient.contentManager_26  PiecesDownloaded:vector  ETV
attr source  ContentManager_PieceDownloaded
attr title  "Pieces Downloaded, vector"
vector 879  BasicTopology.peer[6].bitTorrentApp.bitTorrentClient.contentManager_26  PiecesDownloaded:vector  ETV
attr source  ContentManager_PieceDownloaded
attr title  "Pieces Downloaded, vector"
vector 881  BasicTopology.peer[6].bitTorrentApp.bitTorrentClient.contentManager_26  TotalBytesUploaded:vector  ETV
attr source  ContentManager_TotalBytesUploaded
attr title  "Total of Bytes Uploaded, vector"
attr unit  B
vector 896  BasicTopology.peer[8].bitTorrentApp.bitTorrentClient.contentManager_26  TotalBytesDownloaded:vector  ETV
attr source  ContentManager_TotalBytesDownloaded
attr title  "Total of Bytes Downloaded, vector"
attr unit  B
vector 928  BasicTopology.peer[12].bitTorrentApp.bitTorrentClient.contentManager_26  TotalBytesDownloaded:vector  ETV
attr source  ContentManager_TotalBytesDownloaded
attr title  "Total of Bytes Downloaded, vector"
attr unit  B
vector 984  BasicTopology.peer[19].bitTorrentApp.bitTorrentClient.contentManager_26  TotalBytesDownloaded:vector  ETV
attr source  ContentManager_TotalBytesDownloaded
attr title  "Total of Bytes Downloaded, vector"
attr unit  B
vector 976  BasicTopology.peer[18].bitTorrentApp.bitTorrentClient.contentManager_26  TotalBytesDownloaded:vector  ETV
attr source  ContentManager_TotalBytesDownloaded
attr title  "Total of Bytes Downloaded, vector"
attr unit  B
vector 903  BasicTopology.peer[9].bitTorrentApp.bitTorrentClient.contentManager_26  PiecesDownloaded:vector  ETV
attr source  ContentManager_PieceDownloaded
attr title  "Pieces Downloaded, vector"
vector 905  BasicTopology.peer[9].bitTorrentApp.bitTorrentClient.contentManager_26  TotalBytesUploaded:vector  ETV
attr source  ContentManager_TotalBytesUploaded
attr title  "Total of Bytes Uploaded, vector"
attr unit  B
vector 959  BasicTopology.peer[16].bitTorrentApp.bitTorrentClient.contentManager_26  PiecesDownloaded:vector  ETV
attr source  ContentManager_PieceDownloaded
attr title  "Pieces Downloaded, vector"
vector 967  BasicTopology.peer[17].bitTorrentApp.bitTorrentClient.contentManager_26  PiecesDownloaded:vector  ETV
attr source  ContentManager_PieceDownloaded
attr title  "Pieces Downloaded, vector"
vector 1015  BasicTopology.peer[23].bitTorrentApp.bitTorrentClient.contentManager_26  PiecesDownloaded:vector  ETV
attr source  ContentManager_PieceDownloaded
attr title  "Pieces Downloaded, vector"
vector 1017  BasicTopology.peer[23].bitTorrentApp.bitTorrentClient.contentManager_26  TotalBytesUploaded:vector  ETV
attr source  ContentManager_TotalBytesUploaded
attr title  "Total of Bytes Uploaded, vector"
attr unit  B
vector 927  BasicTopology.peer[12].bitTorrentApp.bitTorrentClient.contentManager_26  PiecesDownloaded:vector  ETV
attr source  ContentManager_PieceDownloaded
attr title  "Pieces Downloaded, vector"
vector 975  BasicTopology.peer[18].bitTorrentApp.bitTorrentClient.contentManager_26  PiecesDownloaded:vector  ETV
attr source  ContentManager_PieceDownloaded
attr title  "Pieces Downloaded, vector"
vector 847  BasicTopology.peer[2].bitTorrentApp.bitTorrentClient.contentManager_26  PiecesDownloaded:vector  ETV
attr source  ContentManager_PieceDownloaded
attr title  "Pieces Downloaded, vector"
vector 895  BasicTopology.peer[8].bitTorrentApp.bitTorrentClient.contentManager_26  PiecesDownloaded:vector  ETV
attr source  ContentManager_PieceDownloaded
attr title  "Pieces Downloaded, vector"
vector 951  BasicTopology.peer[15].bitTorrentApp.bitTorrentClient.contentManager_26  PiecesDownloaded:vector  ETV
attr source  ContentManager_PieceDownloaded
attr title  "Pieces Downloaded, vector"
vector 929  BasicTopology.peer[12].bitTorrentApp.bitTorrentClient.contentManager_26  TotalBytesUploaded:vector  ETV
attr source  ContentManager_TotalBytesUploaded
attr title  "Total of Bytes Uploaded, vector"
attr unit  B
vector 871  BasicTopology.peer[5].bitTorrentApp.bitTorrentClient.contentManager_26  PiecesDownloaded:vector  ETV
attr source  ContentManager_PieceDownloaded
attr title  "Pieces Downloaded, vector"
vector 873  BasicTopology.peer[5].bitTorrentApp.bitTorrentClient.contentManager_26  TotalBytesUploaded:vector  ETV
attr source  ContentManager_TotalBytesUploaded
attr title  "Total of Bytes Uploaded, vector"
attr unit  B
vector 983  BasicTopology.peer[19].bitTorrentApp.bitTorrentClient.contentManager_26  PiecesDownloaded:vector  ETV
attr source  ContentManager_PieceDownloaded
attr title  "Pieces Downloaded, vector"
vector 849  BasicTopology.peer[2].bitTorrentApp.bitTorrentClient.contentManager_26  TotalBytesUploaded:vector  ETV
attr source  ContentManager_TotalBytesUploaded
attr title  "Total of Bytes Uploaded, vector"
attr unit  B
vector 887  BasicTopology.peer[7].bitTorrentApp.bitTorrentClient.contentManager_26  PiecesDownloaded:vector  ETV
attr source  ContentManager_PieceDownloaded
attr title  "Pieces Downloaded, vector"
vector 943  BasicTopology.peer[14].bitTorrentApp.bitTorrentClient.contentManager_26  PiecesDownloaded:vector  ETV
attr source  ContentManager_PieceDownloaded
attr title  "Pieces Downloaded, vector"
vector 919  BasicTopology.peer[11].bitTorrentApp.bitTorrentClient.contentManager_26  PiecesDownloaded:vector  ETV
attr source  ContentManager_PieceDownloaded
attr title  "Pieces Downloaded, vector"
vector 921  BasicTopology.peer[11].bitTorrentApp.bitTorrentClient.contentManager_26  TotalBytesUploaded:vector  ETV
attr source  ContentManager_TotalBytesUploaded
attr title  "Total of Bytes Uploaded, vector"
attr unit  B
vector 889  BasicTopology.peer[7].bitTorrentApp.bitTorrentClient.contentManager_26  TotalBytesUploaded:vector  ETV
attr source  ContentManager_TotalBytesUploaded
attr title  "Total of Bytes Uploaded, vector"
attr unit  B
vector 953  BasicTopology.peer[15].bitTorrentApp.bitTorrentClient.contentManager_26  TotalBytesUploaded:vector  ETV
attr source  ContentManager_TotalBytesUploaded
attr title  "Total of Bytes Uploaded, vector"
attr unit  B
vector 969  BasicTopology.peer[17].bitTorrentApp.bitTorrentClient.contentManager_26  TotalBytesUploaded:vector  ETV
attr source  ContentManager_TotalBytesUploaded
attr title  "Total of Bytes Uploaded, vector"
attr unit  B
3	85	36001	36001
3	21438599	36038.46082577692	36038.460825777
5	86	36001	36001
5	73350073	36133.372762509396	36133.372762509
7	87	36001	36001
7	84761766	36160.360811633607	36160.360811634
9	88	36001	36001
9	68880889	36123.987869476504	36123.987869477
11	89	36001	36001
11	71057110	36128.608074604437	36128.608074604
13	90	36001	36001
13	75304627	36137.491332049828	36137.49133205
15	91	36001	36001
15	79986287	36148.589486382498	36148.589486382
17	92	36001	36001
17	79498520	36147.315653551975	36147.315653552
19	93	36001	36001
19	84197292	36158.204036295542	36158.204036296
21	94	36001	36001
21	31562215	36054.282647577378	36054.282647577
23	95	36001	36001
23	75953212	36138.832394883045	36138.832394883
25	96	36001	36001
25	68612567	36123.446272882247	36123.446272882
27	97	36001	36001
27	77155163	36141.497313449615	36141.49731345
29	98	36001	36001
29	76244940	36139.511836340607	36139.511836341
31	99	36001	36001
31	77179574	36141.5347404294	36141.534740429
33	100	36001	36001
33	74269960	36135.352843575739	36135.352843576
35	101	36001	36001
35	82374572	36154.158013563027	36154.158013563
37	102	36001	36001
37	84709894	36160.198497210362	36160.19849721
39	103	36001	36001
39	83744116	36157.337080495122	36157.337080495
41	104	36001	36001
41	32564494	36055.897646091385	36055.897646091
43	105	36001	36001
43	29479137	36050.981897593286	36050.981897593
45	106	36001	36001
45	70860439	36128.077829447448	36128.077829447
47	107	36001	36001
47	79160538	36146.732581379139	36146.732581379
49	108	36001	36001
49	86069875	36180.91821289357	36180.918212894
833	105840	36001.083043094312	32768
833	106556	36001.083951598378	65536
833	107101	36001.08472378018	98304
833	109666	36001.087790619481	131072
833	109710	36001.087923881271	163840
833	110691	36001.088995857206	196608
833	120132	36001.103195027725	229376
833	120284	36001.103892604501	262144
833	123462	36001.114508918733	294912
833	136812	36001.132651722618	327680
833	157761	36001.160433096075	360448
833	158659	36001.161628318078	393216
833	168904	36001.175910459581	425984
833	175683	36001.184775272694	458752
833	176018	36001.185233214799	491520
833	177657	36001.187836563108	524288
833	180049	36001.191907860961	557056
833	182576	36001.211708263644	589824
833	182578	36001.213403297977	622592
833	182580	36001.214015353267	655360
833	468298	36002.587132214424	688128
833	481926	36002.629914175619	720896
833	483188	36002.634171234272	753664
833	485410	36002.639141198326	786432
833	491909	36002.64932263037	819200
833	495700	36002.662788031556	851968
833	495962	36002.663361614114	884736
833	496044	36002.663629289251	917504
833	496516	36002.664474425848	950272
833	499217	36002.670720441212	983040
833	499342	36002.670968853354	1015808
833	499651	36002.671728114778	1048576
833	500425	36002.673259943914	1081344
833	506512	36002.685810572805	1114112
833	510319	36002.694569089837	1146880
833	521325	36002.724654412298	1179648
833	521539	36002.725502723053	1212416
833	521658	36002.725758269975	1245184
833	523445	36002.733227461994	1277952
833	530324	36002.760077495649	1310720
833	537279	36002.782299050284	1343488
833	537445	36002.78266846687	1376256
833	537541	36002.78293271817	1409024
833	549096	36002.829742292025	1441792
833	567369	36002.898310522028	1474560
833	615782	36003.712764263084	1507328
833	705766	36003.965841660828	1540096
833	805057	36004.075501737111	1572864
833	805094	36004.075506532207	1605632
833	845782	36004.119094178138	1638400
833	846255	36004.119778793076	1671168
833	849397	36004.12226827481	1703936
833	867377	36004.140277808734	1736704
833	868229	36004.141165704731	1769472
833	883480	36004.158183107542	1802240
833	898405	36004.179162541897	1835008
833	900449	36004.182744063713	1867776
833	900670	36004.183553382564	1900544
833	916923	36004.237668188514	1933312
833	934003	36004.309163556062	1966080
833	946870	36004.365787762793	1998848
833	1090550	36004.71193785754	2031616
833	1091244	36004.713607523167	2064384
833	1092303	36004.716079994065	2097152
833	1094253	36004.721289925806	2129920
833	1102795	36004.746884696849	2162688
833	1103765	36004.75010026555	2195456
833	1103985	36004.750818538149	2228224
833	1109479	36004.76797507407	2260992
833	1109849	36004.768838875425	2293760
833	1114299	36004.782849050566	2326528
833	1135423	36004.831075287464	2359296
833	1176430	36004.929980593345	2392064
833	1271385	36005.105356293367	2424832
833	1315405	36005.226907644837	2457600
833	1364265	36005.33748070222	2490368
833	1377898	36005.38084062434	2523136
833	1384611	36005.401453948816	2555904
833	1385189	36005.402931490152	2588672
833	1394371	36005.432756017097	2621440
833	1400776	36005.451453100334	2654208
833	1410955	36005.482216358687	2686976
833	1423820	36005.521248738931	2719744
833	1434678	36005.540911957711	2752512
833	1470992	36005.644246430304	2785280
833	1471770	36005.645661507962	2818048
833	1473991	36005.648370999188	2850816
833	1478661	36005.656036449625	2883584
833	1479681	36005.657511257234	2916352
833	1487365	36005.669323652144	2949120
833	1489659	36005.672758853878	2981888
833	1497579	36005.691144034582	3014656
833	1497813	36005.691483736152	3047424
833	1498846	36005.693463909303	3080192
833	1500820	36005.696195231598	3112960
833	1506893	36005.705739796085	3145728
833	1507280	36005.706706801736	3178496
833	1515200	36005.719482448368	3211264
833	1525218	36005.74295944381	3244032
833	1535776	36005.76043024058	3276800
833	1552296	36005.799415557621	3309568
833	1557700	36005.81066500301	3342336
833	1559151	36005.815033849245	3375104
833	1664665	36006.070580773931	3407872
833	1723483	36006.214176908075	3440640
833	1764987	36006.314689142007	3473408
833	1788512	36006.35956568618	3506176
833	1876856	36006.578114270697	3538944
833	1883910	36006.601950675468	3571712
833	1892577	36006.631562766849	3604480
833	1903728	36006.856984323865	3637248
833	1939227	36006.937869292052	3670016
833	1941442	36006.944032537222	3702784
833	1964148	36007.011816600646	3735552
833	2058512	36007.139987950093	3768320
833	2105645	36007.235645765946	3801088
833	2138685	36007.306644223004	3833856
833	2197619	36007.425298043061	3866624
833	2268656	36007.557177677939	3899392
833	2670646	36008.514148667339	3932160
833	2757261	36008.63011257497	3964928
833	2767322	36008.64653316249	3997696
833	2817361	36008.737587638457	4030464
833	2849389	36008.803931812132	4063232
833	2889461	36008.882557461731	4096000
833	2931069	36008.969692358113	4128768
833	2978926	36009.083183584003	4161536
833	3180828	36009.653978479671	4194304
833	3194527	36009.691533224621	4227072
833	3463733	36010.196159060488	4259840
833	3689128	36010.705780086767	4292608
833	3697092	36010.727714613658	4325376
833	3712186	36010.763549009947	4358144
833	3911020	36011.198803619454	4390912
833	3963838	36011.325936635927	4423680
833	4472067	36012.476627259749	4456448
833	4617517	36012.783558175088	4489216
833	4935580	36013.287669190666	4521984
833	4945074	36013.302893470865	4554752
833	4949357	36013.308958028695	4587520
833	4950246	36013.310669256399	4620288
833	4951012	36013.311874463016	4653056
833	4952170	36013.313651572239	4685824
833	4957222	36013.322561114881	4718592
833	4965072	36013.335378325689	4751360
833	5241413	36013.794997140557	4784128
833	5255921	36013.823151986936	4816896
833	5276540	36013.870400421175	4849664
833	5317495	36013.950105975643	4882432
833	5356706	36014.028709025614	4915200
833	5379463	36014.064305946973	4947968
833	5417236	36014.125384434308	4980736
833	5469166	36014.21445633661	5013504
833	5484394	36014.242044104182	5046272
833	5550064	36014.351041652909	5079040
833	5860880	36014.838863501497	5111808
833	5875518	36014.860762674879	5144576
833	5907207	36014.906553213742	5177344
833	5914968	36014.918422315099	5210112
833	5934014	36014.948827405376	5242880
833	6063547	36015.252298014902	5275648
833	6102485	36015.319129944779	5308416
833	6161715	36015.41949842714	5341184
833	6300625	36015.674449777636	5373952
833	6339338	36015.753082968169	5406720
833	6492063	36015.988796445914	5439488
833	6530257	36016.042263464707	5472256
833	6582115	36016.128631174567	5505024
833	6798370	36016.48024864655	5537792
833	6847914	36016.549087360698	5570560
833	6899897	36016.62145978724	5603328
833	7000625	36016.770626523373	5636096
833	7038199	36016.860047157812	5668864
833	7798973	36017.951736895982	5701632
833	7937228	36018.152172515567	5734400
833	8094741	36018.407260217042	5767168
833	8222457	36018.60477941407	5799936
833	8344039	36018.78854147049	5832704
833	8501122	36018.993345066954	5865472
833	8508727	36019.00297195614	5898240
833	8650962	36019.179198511535	5931008
833	8679673	36019.211322785837	5963776
833	8697985	36019.232001521692	5996544
833	8725773	36019.26220564872	6029312
833	8755757	36019.29714949318	6062080
833	9293439	36020.177192844795	6094848
833	9348174	36020.256607784547	6127616
833	9403149	36020.332520772781	6160384
833	9437536	36020.373857348655	6193152
833	9448112	36020.386297035346	6225920
833	9464726	36020.404876660214	6258688
833	9492538	36020.440891010145	6291456
833	9813204	36020.921078671831	6324224
833	9912669	36021.058115134281	6356992
833	9992188	36021.163148764659	6389760
833	10035606	36021.223930215342	6422528
833	10147669	36021.401449361634	6455296
833	10209935	36021.484805880359	6488064
833	10240848	36021.524340195789	6520832
833	10242810	36021.527475443713	6553600
833	10271157	36021.562448137457	6586368
833	10385541	36021.702744558989	6619136
833	10424722	36021.752602532149	6651904
833	10721413	36022.151040845257	6684672
833	10799100	36022.300030421742	6717440
833	10854913	36022.380200135049	6750208
833	10900045	36022.443379024794	6782976
833	11039493	36022.631458544554	6815744
833	11047353	36022.641844403355	6848512
833	11062490	36022.662953881592	6881280
833	11132277	36022.763236791256	6914048
833	11141099	36022.776437285776	6946816
833	11178779	36022.831669317151	6979584
833	11202002	36022.867816486603	7012352
833	11269459	36022.979048466137	7045120
833	11310350	36023.03659113475	7077888
833	11549680	36023.403678282894	7110656
833	12413679	36024.808042898236	7143424
833	12491119	36024.91170455066	7176192
833	12495309	36024.916679585012	7208960
833	12562703	36025.009174295561	7241728
833	13038408	36025.803563376556	7274496
833	13748019	36026.907414228463	7307264
833	13784677	36026.965633752578	7340032
833	13846787	36027.056260453746	7372800
833	13884841	36027.11125928478	7405568