version 2
run Test-6-20200424-20:17:17-7713
attr configname Test
attr datetime 20200424-20:17:17
attr experiment "\"Simulation Test\""
attr inifile BasicConfig.ini
attr iterationvars ""
attr iterationvars2 $repetition=6
attr measurement "\"Peers: $peers, Rate: $rate\""
attr network BasicTopology
attr processid 7713
attr repetition 6
attr replication #6
attr resultdir results
attr runnumber 6
attr seedset 6

vector 3  BasicTopology.peer[1].bitTorrentApp.bitTorrentClient  DownloadComplete_Test:vector  ETV
attr source  BitTorrentClient_DownloadComplete_Test
attr title  "Descargas completas (prueba), vector"
vector 5  BasicTopology.peer[2].bitTorrentApp.bitTorrentClient  DownloadComplete_Test:vector  ETV
attr source  BitTorrentClient_DownloadComplete_Test
attr title  "Descargas completas (prueba), vector"
vector 7  BasicTopology.peer[3].bitTorrentApp.bitTorrentClient  DownloadComplete_Test:vector  ETV
attr source  BitTorrentClient_DownloadComplete_Test
attr title  "Descargas completas (prueba), vector"
vector 9  BasicTopology.peer[4].bitTorrentApp.bitTorrentClient  DownloadComplete_Test:vector  ETV
attr source  BitTorrentClient_DownloadComplete_Test
attr title  "Descargas completas (prueba), vector"
vector 11  BasicTopology.peer[5].bitTorrentApp.bitTorrentClient  DownloadComplete_Test:vector  ETV
attr source  BitTorrentClient_DownloadComplete_Test
attr title  "Descargas completas (prueba), vector"
vector 13  BasicTopology.peer[6].bitTorrentApp.bitTorrentClient  DownloadComplete_Test:vector  ETV
attr source  BitTorrentClient_DownloadComplete_Test
attr title  "Descargas completas (prueba), vector"
vector 15  BasicTopology.peer[7].bitTorrentApp.bitTorrentClient  DownloadComplete_Test:vector  ETV
attr source  BitTorrentClient_DownloadComplete_Test
attr title  "Descargas completas (prueba), vector"
vector 17  BasicTopology.peer[8].bitTorrentApp.bitTorrentClient  DownloadComplete_Test:vector  ETV
attr source  BitTorrentClient_DownloadComplete_Test
attr title  "Descargas completas (prueba), vector"
vector 19  BasicTopology.peer[9].bitTorrentApp.bitTorrentClient  DownloadComplete_Test:vector  ETV
attr source  BitTorrentClient_DownloadComplete_Test
attr title  "Descargas completas (prueba), vector"
vector 21  BasicTopology.peer[10].bitTorrentApp.bitTorrentClient  DownloadComplete_Test:vector  ETV
attr source  BitTorrentClient_DownloadComplete_Test
attr title  "Descargas completas (prueba), vector"
vector 23  BasicTopology.peer[11].bitTorrentApp.bitTorrentClient  DownloadComplete_Test:vector  ETV
attr source  BitTorrentClient_DownloadComplete_Test
attr title  "Descargas completas (prueba), vector"
vector 25  BasicTopology.peer[12].bitTorrentApp.bitTorrentClient  DownloadComplete_Test:vector  ETV
attr source  BitTorrentClient_DownloadComplete_Test
attr title  "Descargas completas (prueba), vector"
vector 27  BasicTopology.peer[13].bitTorrentApp.bitTorrentClient  DownloadComplete_Test:vector  ETV
attr source  BitTorrentClient_DownloadComplete_Test
attr title  "Descargas completas (prueba), vector"
vector 29  BasicTopology.peer[14].bitTorrentApp.bitTorrentClient  DownloadComplete_Test:vector  ETV
attr source  BitTorrentClient_DownloadComplete_Test
attr title  "Descargas completas (prueba), vector"
vector 31  BasicTopology.peer[15].bitTorrentApp.bitTorrentClient  DownloadComplete_Test:vector  ETV
attr source  BitTorrentClient_DownloadComplete_Test
attr title  "Descargas completas (prueba), vector"
vector 33  BasicTopology.peer[16].bitTorrentApp.bitTorrentClient  DownloadComplete_Test:vector  ETV
attr source  BitTorrentClient_DownloadComplete_Test
attr title  "Descargas completas (prueba), vector"
vector 35  BasicTopology.peer[17].bitTorrentApp.bitTorrentClient  DownloadComplete_Test:vector  ETV
attr source  BitTorrentClient_DownloadComplete_Test
attr title  "Descargas completas (prueba), vector"
vector 37  BasicTopology.peer[18].bitTorrentApp.bitTorrentClient  DownloadComplete_Test:vector  ETV
attr source  BitTorrentClient_DownloadComplete_Test
attr title  "Descargas completas (prueba), vector"
vector 39  BasicTopology.peer[19].bitTorrentApp.bitTorrentClient  DownloadComplete_Test:vector  ETV
attr source  BitTorrentClient_DownloadComplete_Test
attr title  "Descargas completas (prueba), vector"
vector 41  BasicTopology.peer[20].bitTorrentApp.bitTorrentClient  DownloadComplete_Test:vector  ETV
attr source  BitTorrentClient_DownloadComplete_Test
attr title  "Descargas completas (prueba), vector"
vector 43  BasicTopology.peer[21].bitTorrentApp.bitTorrentClient  DownloadComplete_Test:vector  ETV
attr source  BitTorrentClient_DownloadComplete_Test
attr title  "Descargas completas (prueba), vector"
vector 45  BasicTopology.peer[22].bitTorrentApp.bitTorrentClient  DownloadComplete_Test:vector  ETV
attr source  BitTorrentClient_DownloadComplete_Test
attr title  "Descargas completas (prueba), vector"
vector 47  BasicTopology.peer[23].bitTorrentApp.bitTorrentClient  DownloadComplete_Test:vector  ETV
attr source  BitTorrentClient_DownloadComplete_Test
attr title  "Descargas completas (prueba), vector"
vector 49  BasicTopology.peer[24].bitTorrentApp.bitTorrentClient  DownloadComplete_Test:vector  ETV
attr source  BitTorrentClient_DownloadComplete_Test
attr title  "Descargas completas (prueba), vector"
vector 833  BasicTopology.peer[0].bitTorrentApp.bitTorrentClient.contentManager_26  TotalBytesUploaded:vector  ETV
attr source  ContentManager_TotalBytesUploaded
attr title  "Total of Bytes Uploaded, vector"
attr unit  B
vector 1000  BasicTopology.peer[21].bitTorrentApp.bitTorrentClient.contentManager_26  TotalBytesDownloaded:vector  ETV
attr source  ContentManager_TotalBytesDownloaded
attr title  "Total of Bytes Downloaded, vector"
attr unit  B
vector 920  BasicTopology.peer[11].bitTorrentApp.bitTorrentClient.contentManager_26  TotalBytesDownloaded:vector  ETV
attr source  ContentManager_TotalBytesDownloaded
attr title  "Total of Bytes Downloaded, vector"
attr unit  B
vector 912  BasicTopology.peer[10].bitTorrentApp.bitTorrentClient.contentManager_26  TotalBytesDownloaded:vector  ETV
attr source  ContentManager_TotalBytesDownloaded
attr title  "Total of Bytes Downloaded, vector"
attr unit  B
vector 840  BasicTopology.peer[1].bitTorrentApp.bitTorrentClient.contentManager_26  TotalBytesDownloaded:vector  ETV
attr source  ContentManager_TotalBytesDownloaded
attr title  "Total of Bytes Downloaded, vector"
attr unit  B
vector 999  BasicTopology.peer[21].bitTorrentApp.bitTorrentClient.contentManager_26  PiecesDownloaded:vector  ETV
attr source  ContentManager_PieceDownloaded
attr title  "Pieces Downloaded, vector"
vector 1001  BasicTopology.peer[21].bitTorrentApp.bitTorrentClient.contentManager_26  TotalBytesUploaded:vector  ETV
attr source  ContentManager_TotalBytesUploaded
attr title  "Total of Bytes Uploaded, vector"
attr unit  B
vector 1008  BasicTopology.peer[22].bitTorrentApp.bitTorrentClient.contentManager_26  TotalBytesDownloaded:vector  ETV
attr source  ContentManager_TotalBytesDownloaded
attr title  "Total of Bytes Downloaded, vector"
attr unit  B
vector 992  BasicTopology.peer[20].bitTorrentApp.bitTorrentClient.contentManager_26  TotalBytesDownloaded:vector  ETV
attr source  ContentManager_TotalBytesDownloaded
attr title  "Total of Bytes Downloaded, vector"
attr unit  B
vector 911  BasicTopology.peer[10].bitTorrentApp.bitTorrentClient.contentManager_26  PiecesDownloaded:vector  ETV
attr source  ContentManager_PieceDownloaded
attr title  "Pieces Downloaded, vector"
vector 913  BasicTopology.peer[10].bitTorrentApp.bitTorrentClient.contentManager_26  TotalBytesUploaded:vector  ETV
attr source  ContentManager_TotalBytesUploaded
attr title  "Total of Bytes Uploaded, vector"
attr unit  B
vector 839  BasicTopology.peer[1].bitTorrentApp.bitTorrentClient.contentManager_26  PiecesDownloaded:vector  ETV
attr source  ContentManager_PieceDownloaded
attr title  "Pieces Downloaded, vector"
vector 841  BasicTopology.peer[1].bitTorrentApp.bitTorrentClient.contentManager_26  TotalBytesUploaded:vector  ETV
attr source  ContentManager_TotalBytesUploaded
attr title  "Total of Bytes Uploaded, vector"
attr unit  B
vector 952  BasicTopology.peer[15].bitTorrentApp.bitTorrentClient.contentManager_26  TotalBytesDownloaded:vector  ETV
attr source  ContentManager_TotalBytesDownloaded
attr title  "Total of Bytes Downloaded, vector"
attr unit  B
vector 1016  BasicTopology.peer[23].bitTorrentApp.bitTorrentClient.contentManager_26  TotalBytesDownloaded:vector  ETV
attr source  ContentManager_TotalBytesDownloaded
attr title  "Total of Bytes Downloaded, vector"
attr unit  B
vector 984  BasicTopology.peer[19].bitTorrentApp.bitTorrentClient.contentManager_26  TotalBytesDownloaded:vector  ETV
attr source  ContentManager_TotalBytesDownloaded
attr title  "Total of Bytes Downloaded, vector"
attr unit  B
vector 848  BasicTopology.peer[2].bitTorrentApp.bitTorrentClient.contentManager_26  TotalBytesDownloaded:vector  ETV
attr source  ContentManager_TotalBytesDownloaded
attr title  "Total of Bytes Downloaded, vector"
attr unit  B
vector 919  BasicTopology.peer[11].bitTorrentApp.bitTorrentClient.contentManager_26  PiecesDownloaded:vector  ETV
attr source  ContentManager_PieceDownloaded
attr title  "Pieces Downloaded, vector"
vector 921  BasicTopology.peer[11].bitTorrentApp.bitTorrentClient.contentManager_26  TotalBytesUploaded:vector  ETV
attr source  ContentManager_TotalBytesUploaded
attr title  "Total of Bytes Uploaded, vector"
attr unit  B
vector 856  BasicTopology.peer[3].bitTorrentApp.bitTorrentClient.contentManager_26  TotalBytesDownloaded:vector  ETV
attr source  ContentManager_TotalBytesDownloaded
attr title  "Total of Bytes Downloaded, vector"
attr unit  B
vector 855  BasicTopology.peer[3].bitTorrentApp.bitTorrentClient.contentManager_26  PiecesDownloaded:vector  ETV
attr source  ContentManager_PieceDownloaded
attr title  "Pieces Downloaded, vector"
vector 857  BasicTopology.peer[3].bitTorrentApp.bitTorrentClient.contentManager_26  TotalBytesUploaded:vector  ETV
attr source  ContentManager_TotalBytesUploaded
attr title  "Total of Bytes Uploaded, vector"
attr unit  B
vector 1015  BasicTopology.peer[23].bitTorrentApp.bitTorrentClient.contentManager_26  PiecesDownloaded:vector  ETV
attr source  ContentManager_PieceDownloaded
attr title  "Pieces Downloaded, vector"
vector 1017  BasicTopology.peer[23].bitTorrentApp.bitTorrentClient.contentManager_26  TotalBytesUploaded:vector  ETV
attr source  ContentManager_TotalBytesUploaded
attr title  "Total of Bytes Uploaded, vector"
attr unit  B
vector 864  BasicTopology.peer[4].bitTorrentApp.bitTorrentClient.contentManager_26  TotalBytesDownloaded:vector  ETV
attr source  ContentManager_TotalBytesDownloaded
attr title  "Total of Bytes Downloaded, vector"
attr unit  B
vector 872  BasicTopology.peer[5].bitTorrentApp.bitTorrentClient.contentManager_26  TotalBytesDownloaded:vector  ETV
attr source  ContentManager_TotalBytesDownloaded
attr title  "Total of Bytes Downloaded, vector"
attr unit  B
vector 896  BasicTopology.peer[8].bitTorrentApp.bitTorrentClient.contentManager_26  TotalBytesDownloaded:vector  ETV
attr source  ContentManager_TotalBytesDownloaded
attr title  "Total of Bytes Downloaded, vector"
attr unit  B
vector 847  BasicTopology.peer[2].bitTorrentApp.bitTorrentClient.contentManager_26  PiecesDownloaded:vector  ETV
attr source  ContentManager_PieceDownloaded
attr title  "Pieces Downloaded, vector"
vector 849  BasicTopology.peer[2].bitTorrentApp.bitTorrentClient.contentManager_26  TotalBytesUploaded:vector  ETV
attr source  ContentManager_TotalBytesUploaded
attr title  "Total of Bytes Uploaded, vector"
attr unit  B
vector 944  BasicTopology.peer[14].bitTorrentApp.bitTorrentClient.contentManager_26  TotalBytesDownloaded:vector  ETV
attr source  ContentManager_TotalBytesDownloaded
attr title  "Total of Bytes Downloaded, vector"
attr unit  B
vector 928  BasicTopology.peer[12].bitTorrentApp.bitTorrentClient.contentManager_26  TotalBytesDownloaded:vector  ETV
attr source  ContentManager_TotalBytesDownloaded
attr title  "Total of Bytes Downloaded, vector"
attr unit  B
vector 991  BasicTopology.peer[20].bitTorrentApp.bitTorrentClient.contentManager_26  PiecesDownloaded:vector  ETV
attr source  ContentManager_PieceDownloaded
attr title  "Pieces Downloaded, vector"
vector 936  BasicTopology.peer[13].bitTorrentApp.bitTorrentClient.contentManager_26  TotalBytesDownloaded:vector  ETV
attr source  ContentManager_TotalBytesDownloaded
attr title  "Total of Bytes Downloaded, vector"
attr unit  B
vector 880  BasicTopology.peer[6].bitTorrentApp.bitTorrentClient.contentManager_26  TotalBytesDownloaded:vector  ETV
attr source  ContentManager_TotalBytesDownloaded
attr title  "Total of Bytes Downloaded, vector"
attr unit  B
vector 993  BasicTopology.peer[20].bitTorrentApp.bitTorrentClient.contentManager_26  TotalBytesUploaded:vector  ETV
attr source  ContentManager_TotalBytesUploaded
attr title  "Total of Bytes Uploaded, vector"
attr unit  B
vector 960  BasicTopology.peer[16].bitTorrentApp.bitTorrentClient.contentManager_26  TotalBytesDownloaded:vector  ETV
attr source  ContentManager_TotalBytesDownloaded
attr title  "Total of Bytes Downloaded, vector"
attr unit  B
vector 1024  BasicTopology.peer[24].bitTorrentApp.bitTorrentClient.contentManager_26  TotalBytesDownloaded:vector  ETV
attr source  ContentManager_TotalBytesDownloaded
attr title  "Total of Bytes Downloaded, vector"
attr unit  B
vector 895  BasicTopology.peer[8].bitTorrentApp.bitTorrentClient.contentManager_26  PiecesDownloaded:vector  ETV
attr source  ContentManager_PieceDownloaded
attr title  "Pieces Downloaded, vector"
vector 897  BasicTopology.peer[8].bitTorrentApp.bitTorrentClient.contentManager_26  TotalBytesUploaded:vector  ETV
attr source  ContentManager_TotalBytesUploaded
attr title  "Total of Bytes Uploaded, vector"
attr unit  B
vector 968  BasicTopology.peer[17].bitTorrentApp.bitTorrentClient.contentManager_26  TotalBytesDownloaded:vector  ETV
attr source  ContentManager_TotalBytesDownloaded
attr title  "Total of Bytes Downloaded, vector"
attr unit  B
vector 951  BasicTopology.peer[15].bitTorrentApp.bitTorrentClient.contentManager_26  PiecesDownloaded:vector  ETV
attr source  ContentManager_PieceDownloaded
attr title  "Pieces Downloaded, vector"
vector 953  BasicTopology.peer[15].bitTorrentApp.bitTorrentClient.contentManager_26  TotalBytesUploaded:vector  ETV
attr source  ContentManager_TotalBytesUploaded
attr title  "Total of Bytes Uploaded, vector"
attr unit  B
vector 863  BasicTopology.peer[4].bitTorrentApp.bitTorrentClient.contentManager_26  PiecesDownloaded:vector  ETV
attr source  ContentManager_PieceDownloaded
attr title  "Pieces Downloaded, vector"
vector 904  BasicTopology.peer[9].bitTorrentApp.bitTorrentClient.contentManager_26  TotalBytesDownloaded:vector  ETV
attr source  ContentManager_TotalBytesDownloaded
attr title  "Total of Bytes Downloaded, vector"
attr unit  B
vector 1023  BasicTopology.peer[24].bitTorrentApp.bitTorrentClient.contentManager_26  PiecesDownloaded:vector  ETV
attr source  ContentManager_PieceDownloaded
attr title  "Pieces Downloaded, vector"
vector 935  BasicTopology.peer[13].bitTorrentApp.bitTorrentClient.contentManager_26  PiecesDownloaded:vector  ETV
attr source  ContentManager_PieceDownloaded
attr title  "Pieces Downloaded, vector"
vector 1025  BasicTopology.peer[24].bitTorrentApp.bitTorrentClient.contentManager_26  TotalBytesUploaded:vector  ETV
attr source  ContentManager_TotalBytesUploaded
attr title  "Total of Bytes Uploaded, vector"
attr unit  B
vector 888  BasicTopology.peer[7].bitTorrentApp.bitTorrentClient.contentManager_26  TotalBytesDownloaded:vector  ETV
attr source  ContentManager_TotalBytesDownloaded
attr title  "Total of Bytes Downloaded, vector"
attr unit  B
vector 865  BasicTopology.peer[4].bitTorrentApp.bitTorrentClient.contentManager_26  TotalBytesUploaded:vector  ETV
attr source  ContentManager_TotalBytesUploaded
attr title  "Total of Bytes Uploaded, vector"
attr unit  B
vector 967  BasicTopology.peer[17].bitTorrentApp.bitTorrentClient.contentManager_26  PiecesDownloaded:vector  ETV
attr source  ContentManager_PieceDownloaded
attr title  "Pieces Downloaded, vector"
vector 937  BasicTopology.peer[13].bitTorrentApp.bitTorrentClient.contentManager_26  TotalBytesUploaded:vector  ETV
attr source  ContentManager_TotalBytesUploaded
attr title  "Total of Bytes Uploaded, vector"
attr unit  B
vector 903  BasicTopology.peer[9].bitTorrentApp.bitTorrentClient.contentManager_26  PiecesDownloaded:vector  ETV
attr source  ContentManager_PieceDownloaded
attr title  "Pieces Downloaded, vector"
vector 871  BasicTopology.peer[5].bitTorrentApp.bitTorrentClient.contentManager_26  PiecesDownloaded:vector  ETV
attr source  ContentManager_PieceDownloaded
attr title  "Pieces Downloaded, vector"
vector 976  BasicTopology.peer[18].bitTorrentApp.bitTorrentClient.contentManager_26  TotalBytesDownloaded:vector  ETV
attr source  ContentManager_TotalBytesDownloaded
attr title  "Total of Bytes Downloaded, vector"
attr unit  B
vector 1007  BasicTopology.peer[22].bitTorrentApp.bitTorrentClient.contentManager_26  PiecesDownloaded:vector  ETV
attr source  ContentManager_PieceDownloaded
attr title  "Pieces Downloaded, vector"
vector 943  BasicTopology.peer[14].bitTorrentApp.bitTorrentClient.contentManager_26  PiecesDownloaded:vector  ETV
attr source  ContentManager_PieceDownloaded
attr title  "Pieces Downloaded, vector"
vector 959  BasicTopology.peer[16].bitTorrentApp.bitTorrentClient.contentManager_26  PiecesDownloaded:vector  ETV
attr source  ContentManager_PieceDownloaded
attr title  "Pieces Downloaded, vector"
vector 887  BasicTopology.peer[7].bitTorrentApp.bitTorrentClient.contentManager_26  PiecesDownloaded:vector  ETV
attr source  ContentManager_PieceDownloaded
attr title  "Pieces Downloaded, vector"
vector 1009  BasicTopology.peer[22].bitTorrentApp.bitTorrentClient.contentManager_26  TotalBytesUploaded:vector  ETV
attr source  ContentManager_TotalBytesUploaded
attr title  "Total of Bytes Uploaded, vector"
attr unit  B
vector 975  BasicTopology.peer[18].bitTorrentApp.bitTorrentClient.contentManager_26  PiecesDownloaded:vector  ETV
attr source  ContentManager_PieceDownloaded
attr title  "Pieces Downloaded, vector"
vector 983  BasicTopology.peer[19].bitTorrentApp.bitTorrentClient.contentManager_26  PiecesDownloaded:vector  ETV
attr source  ContentManager_PieceDownloaded
attr title  "Pieces Downloaded, vector"
vector 873  BasicTopology.peer[5].bitTorrentApp.bitTorrentClient.contentManager_26  TotalBytesUploaded:vector  ETV
attr source  ContentManager_TotalBytesUploaded
attr title  "Total of Bytes Uploaded, vector"
attr unit  B
vector 961  BasicTopology.peer[16].bitTorrentApp.bitTorrentClient.contentManager_26  TotalBytesUploaded:vector  ETV
attr source  ContentManager_TotalBytesUploaded
attr title  "Total of Bytes Uploaded, vector"
attr unit  B
vector 927  BasicTopology.peer[12].bitTorrentApp.bitTorrentClient.contentManager_26  PiecesDownloaded:vector  ETV
attr source  ContentManager_PieceDownloaded
attr title  "Pieces Downloaded, vector"
vector 879  BasicTopology.peer[6].bitTorrentApp.bitTorrentClient.contentManager_26  PiecesDownloaded:vector  ETV
attr source  ContentManager_PieceDownloaded
attr title  "Pieces Downloaded, vector"
vector 905  BasicTopology.peer[9].bitTorrentApp.bitTorrentClient.contentManager_26  TotalBytesUploaded:vector  ETV
attr source  ContentManager_TotalBytesUploaded
attr title  "Total of Bytes Uploaded, vector"
attr unit  B
vector 881  BasicTopology.peer[6].bitTorrentApp.bitTorrentClient.contentManager_26  TotalBytesUploaded:vector  ETV
attr source  ContentManager_TotalBytesUploaded
attr title  "Total of Bytes Uploaded, vector"
attr unit  B
vector 945  BasicTopology.peer[14].bitTorrentApp.bitTorrentClient.contentManager_26  TotalBytesUploaded:vector  ETV
attr source  ContentManager_TotalBytesUploaded
attr title  "Total of Bytes Uploaded, vector"
attr unit  B
vector 969  BasicTopology.peer[17].bitTorrentApp.bitTorrentClient.contentManager_26  TotalBytesUploaded:vector  ETV
attr source  ContentManager_TotalBytesUploaded
attr title  "Total of Bytes Uploaded, vector"
attr unit  B
3	85	36001	36001
3	83933537	36155.425871544423	36155.425871544
5	86	36001	36001
5	50807441	36086.981987813611	36086.981987814
7	87	36001	36001
7	84007099	36155.850431517958	36155.850431518
9	88	36001	36001
9	82939001	36152.507771723095	36152.507771723
11	89	36001	36001
11	72180450	36129.913536529751	36129.91353653
13	90	36001	36001
13	71426028	36128.313532410579	36128.313532411
15	91	36001	36001
15	72509018	36130.570386161707	36130.570386162
17	92	36001	36001
17	78801522	36143.584746845908	36143.584746846
19	93	36001	36001
19	81896896	36150.225418478128	36150.225418478
21	94	36001	36001
21	78057267	36141.832618387145	36141.832618387
23	95	36001	36001
23	70265832	36125.870219459607	36125.87021946
25	96	36001	36001
25	66206555	36117.698881371745	36117.698881372
27	97	36001	36001
27	70509697	36126.327721569427	36126.327721569
29	98	36001	36001
29	78564929	36143.038848071255	36143.038848071
31	99	36001	36001
31	83168215	36153.074446742872	36153.074446743
33	100	36001	36001
33	75442593	36136.391133277562	36136.391133278
35	101	36001	36001
35	81450868	36149.137724570271	36149.13772457
37	102	36001	36001
37	81751052	36149.81931944016	36149.81931944
39	103	36001	36001
39	78264870	36142.463693137411	36142.463693137
41	104	36001	36001
41	79844169	36145.788868319126	36145.788868319
43	105	36001	36001
43	71998524	36129.604915852829	36129.604915853
45	106	36001	36001
45	73868225	36133.238992579111	36133.238992579
47	107	36001	36001
47	79931115	36146.220222613486	36146.220222613
49	108	36001	36001
49	61299730	36108.144930984393	36108.144930984
833	107037	36001.09005679576	32768
833	115695	36001.116534256069	65536
833	116249	36001.118548933359	98304
833	116342	36001.119120865095	131072
833	125347	36001.126370509035	163840
833	139522	36001.139560475501	196608
833	140136	36001.140432430961	229376
833	150459	36001.151244752131	262144
833	159981	36001.163434279141	294912
833	160588	36001.167032132258	327680
833	255274	36001.584992678134	360448
833	258191	36001.595496128397	393216
833	258412	36001.59665187023	425984
833	261536	36001.607631689933	458752
833	263571	36001.614796637973	491520
833	264881	36001.618880891027	524288
833	270634	36001.627532284965	557056
833	280072	36001.643764186483	589824
833	281322	36001.645982719519	622592
833	281665	36001.647144226942	655360
833	289119	36001.66500944103	688128
833	289121	36001.665031268346	720896
833	306228	36001.687752656391	753664
833	307412	36001.691931606592	786432
833	309884	36001.700768268326	819200
833	312030	36001.705692679518	851968
833	313576	36001.70763624176	884736
833	313845	36001.708203317133	917504
833	313923	36001.709253588162	950272
833	319195	36001.729871700522	983040
833	319969	36001.733631191118	1015808
833	320141	36001.734060379792	1048576
833	334736	36001.783824693204	1081344
833	359001	36001.857249029654	1114112
833	371521	36001.903952609807	1146880
833	425489	36002.236936780451	1179648
833	438208	36002.268092471024	1212416
833	508175	36002.535061833504	1245184
833	524422	36002.555657892903	1277952
833	525288	36002.560957299523	1310720
833	526126	36002.590630314551	1343488
833	526564	36002.594862928879	1376256
833	526566	36002.596352726526	1409024
833	526787	36002.597351395031	1441792
833	526974	36002.598174834679	1474560
833	530118	36002.610283530322	1507328
833	532679	36002.620938165074	1540096
833	532833	36002.62145326729	1572864
833	532978	36002.622009231251	1605632
833	535331	36002.630931627454	1638400
833	535935	36002.635908423815	1671168
833	539848	36002.657112950088	1703936
833	539969	36002.657452802188	1736704
833	544350	36002.666067355491	1769472
833	544352	36002.66727262927	1802240
833	544355	36002.689115911479	1835008
833	544357	36002.694702798073	1867776
833	547985	36002.737007351585	1900544
833	548133	36002.737552725092	1933312
833	548280	36002.737886791483	1966080
833	548810	36002.740910766549	1998848
833	559160	36002.771508597886	2031616
833	560326	36002.773151295773	2064384
833	560463	36002.773790908319	2097152
833	560520	36002.774090699817	2129920
833	560654	36002.774533318613	2162688
833	560893	36002.775438045644	2195456
833	582453	36002.972776647245	2228224
833	660293	36003.321750324992	2260992
833	674918	36003.365887064385	2293760
833	695531	36003.424739747408	2326528
833	713225	36003.669706893269	2359296
833	733129	36003.94937696603	2392064
833	736008	36003.958035134083	2424832
833	856034	36004.107079443242	2457600
833	913147	36004.188800377202	2490368
833	914012	36004.191197964771	2523136
833	914741	36004.192910763326	2555904
833	914883	36004.193325765148	2588672
833	920984	36004.204173886815	2621440
833	921338	36004.204685818076	2654208
833	929537	36004.218233542141	2686976
833	936381	36004.2325877791	2719744
833	936928	36004.234480480709	2752512
833	938593	36004.239578155005	2785280
833	944632	36004.248529948126	2818048
833	967272	36004.462385191967	2850816
833	1036937	36004.559414931394	2883584
833	1126306	36004.717238962202	2916352
833	1154098	36004.780499604892	2949120
833	1175598	36004.85618814191	2981888
833	1183974	36004.990883756222	3014656
833	1195082	36005.01074237738	3047424
833	1222878	36005.040857666308	3080192
833	1243433	36005.191609930609	3112960
833	1268265	36005.274815629506	3145728
833	1287646	36005.342470998192	3178496
833	1307835	36005.420381789903	3211264
833	1326657	36005.486770109256	3244032
833	1342051	36005.534488810439	3276800
833	1397932	36005.644790350224	3309568
833	1509923	36005.884785876087	3342336
833	1526119	36005.938018473788	3375104
833	1538458	36005.978914770902	3407872
833	1655986	36006.163106276333	3440640
833	1661461	36006.175175654423	3473408
833	2056594	36007.038227162036	3506176
833	2057931	36007.039405657322	3538944
833	2139385	36007.204111685452	3571712
833	2143496	36007.270884021859	3604480
833	2152368	36007.305632818867	3637248
833	2237317	36007.659338179025	3670016
833	2835951	36008.724153421344	3702784
833	2868819	36008.781542228134	3735552
833	2889569	36008.81472226613	3768320
833	2918198	36008.857500774695	3801088
833	2979130	36008.950072077325	3833856
833	3013766	36009.035841574958	3866624
833	3032710	36009.092869204271	3899392
833	3049668	36009.141231450655	3932160
833	3104728	36009.252599927304	3964928
833	3137689	36009.324518679266	3997696
833	3175835	36009.420043578891	4030464
833	3242326	36009.550143326493	4063232
833	3446725	36009.906397650674	4096000
833	3483702	36009.96844833162	4128768
833	3631267	36010.139737280639	4161536
833	3706583	36010.250883974846	4194304
833	3706922	36010.251262429542	4227072
833	3767729	36010.335225230104	4259840
833	3809615	36010.401814499542	4292608
833	4117944	36010.911989215422	4325376
833	4121730	36010.917210751731	4358144
833	4132723	36010.931827287528	4390912
833	4256315	36011.096317249897	4423680
833	4286285	36011.145605473708	4456448
833	4417327	36011.416529770271	4489216
833	4476630	36011.523898660567	4521984
833	4493734	36011.551601873917	4554752
833	4539779	36011.633822190417	4587520
833	4564037	36011.68049128423	4620288
833	4600345	36011.752455780344	4653056
833	4775308	36012.068075755203	4685824
833	4968169	36012.364152303187	4718592
833	5635474	36013.522999983454	4751360
833	5947478	36014.207319061922	4784128
833	5969408	36014.243131881295	4816896
833	6169748	36014.56280787976	4849664
833	6245975	36014.642545168882	4882432
833	6367347	36014.775330341864	4915200
833	6371698	36014.780725414377	4947968
833	6490940	36014.945818611927	4980736
833	6851992	36015.548008699748	5013504
833	7040526	36015.876158407253	5046272
833	7052768	36015.897424547711	5079040
833	7081702	36015.948211288325	5111808
833	7131491	36016.026734073413	5144576
833	7174398	36016.093036978417	5177344
833	7662123	36016.81430589598	5210112
833	7713596	36016.881726745088	5242880
833	7762792	36016.952303482124	5275648
833	7812202	36017.035622195867	5308416
833	7956177	36017.251796010035	5341184
833	8307175	36017.726124379883	5373952
833	8407722	36017.881701264705	5406720
833	8608366	36018.193519327433	5439488
833	8612296	36018.199460506548	5472256
833	8699960	36018.370760145981	5505024
833	8727845	36018.410673385197	5537792
833	8789109	36018.507430154146	5570560
833	9202264	36019.079411814952	5603328
833	9275814	36019.171422906644	5636096
833	9510676	36019.481196728972	5668864
833	9558536	36019.556727655312	5701632
833	9595702	36019.61721454042	5734400
833	9685476	36019.753480809875	5767168
833	9756912	36019.859609788751	5799936
833	9824290	36019.938303945975	5832704
833	10037704	36020.272418012234	5865472
833	10115422	36020.371793200548	5898240
833	10204320	36020.485962963287	5931008
833	10252361	36020.541456456333	5963776
833	10324492	36020.629121335244	5996544
833	10462205	36020.857328525921	6029312
833	10565785	36021.00575246277	6062080
833	11382458	36022.094962304059	6094848
833	11434762	36022.162788120571	6127616
833	11448421	36022.191877361548	6160384
833	11763405	36022.661975995378	6193152
833	11908000	36022.856871920142	6225920
833	12720362	36024.068759600179	6258688
833	12895626	36024.300866691904	6291456
833	12896340	36024.301789349467	6324224
833	12911298	36024.324902036431	6356992
833	12911416	36024.32513383483	6389760
833	12929260	36024.346829356542	6422528
833	13070587	36024.532113235785	6455296
833	13160349	36024.649272715703	6488064
833	13797118	36025.605141335163	6520832
833	13809825	36025.62232014716	6553600
833	13850590	36025.678626192584	6586368
833	13891011	36025.736961256295	6619136
833	13928236	36025.786815662148	6651904
833	14055995	36025.966083919917	6684672
833	14117598	36026.05520085761	6717440
833	14189930	36026.162313234306	6750208
833	14248514	36026.257273173499	6782976
833	14625260	36026.792997130382	6815744
833	14712947	36026.883650613995	6848512
833	14783119	36026.959201617076	6881280
833	15122969	36027.414371752327	6914048
833	15222056	36027.551375665219	6946816
833	15357917	36027.767479065122	6979584
833	15486102	36028.025777169151	7012352
833	15486104	36028.02722123976	7045120