file 428192 1587754328                                          
version 2
run Test-20-20200424-00:15:25-4660
attr configname Test
attr datetime 20200424-00:15:25
attr experiment "\"Simulation Test\""
attr inifile BasicConfig.ini
attr iterationvars ""
attr iterationvars2 $repetition=20
attr measurement "\"Peers: $peers, Rate: $rate\""
attr network BasicTopology
attr processid 4660
attr repetition 20
attr replication #20
attr resultdir results
attr runnumber 20
attr seedset 20

vector 3  BasicTopology.peer[1].bitTorrentApp.bitTorrentClient  DownloadComplete_Test:vector  ETV
attr source  BitTorrentClient_DownloadComplete_Test
attr title  "Descargas completas (prueba), vector"
vector 5  BasicTopology.peer[2].bitTorrentApp.bitTorrentClient  DownloadComplete_Test:vector  ETV
attr source  BitTorrentClient_DownloadComplete_Test
attr title  "Descargas completas (prueba), vector"
vector 7  BasicTopology.peer[3].bitTorrentApp.bitTorrentClient  DownloadComplete_Test:vector  ETV
attr source  BitTorrentClient_DownloadComplete_Test
attr title  "Descargas completas (prueba), vector"
vector 9  BasicTopology.peer[4].bitTorrentApp.bitTorrentClient  DownloadComplete_Test:vector  ETV
attr source  BitTorrentClient_DownloadComplete_Test
attr title  "Descargas completas (prueba), vector"
vector 11  BasicTopology.peer[5].bitTorrentApp.bitTorrentClient  DownloadComplete_Test:vector  ETV
attr source  BitTorrentClient_DownloadComplete_Test
attr title  "Descargas completas (prueba), vector"
vector 13  BasicTopology.peer[6].bitTorrentApp.bitTorrentClient  DownloadComplete_Test:vector  ETV
attr source  BitTorrentClient_DownloadComplete_Test
attr title  "Descargas completas (prueba), vector"
vector 15  BasicTopology.peer[7].bitTorrentApp.bitTorrentClient  DownloadComplete_Test:vector  ETV
attr source  BitTorrentClient_DownloadComplete_Test
attr title  "Descargas completas (prueba), vector"
vector 17  BasicTopology.peer[8].bitTorrentApp.bitTorrentClient  DownloadComplete_Test:vector  ETV
attr source  BitTorrentClient_DownloadComplete_Test
attr title  "Descargas completas (prueba), vector"
vector 19  BasicTopology.peer[9].bitTorrentApp.bitTorrentClient  DownloadComplete_Test:vector  ETV
attr source  BitTorrentClient_DownloadComplete_Test
attr title  "Descargas completas (prueba), vector"
vector 21  BasicTopology.peer[10].bitTorrentApp.bitTorrentClient  DownloadComplete_Test:vector  ETV
attr source  BitTorrentClient_DownloadComplete_Test
attr title  "Descargas completas (prueba), vector"
vector 23  BasicTopology.peer[11].bitTorrentApp.bitTorrentClient  DownloadComplete_Test:vector  ETV
attr source  BitTorrentClient_DownloadComplete_Test
attr title  "Descargas completas (prueba), vector"
vector 25  BasicTopology.peer[12].bitTorrentApp.bitTorrentClient  DownloadComplete_Test:vector  ETV
attr source  BitTorrentClient_DownloadComplete_Test
attr title  "Descargas completas (prueba), vector"
vector 27  BasicTopology.peer[13].bitTorrentApp.bitTorrentClient  DownloadComplete_Test:vector  ETV
attr source  BitTorrentClient_DownloadComplete_Test
attr title  "Descargas completas (prueba), vector"
vector 29  BasicTopology.peer[14].bitTorrentApp.bitTorrentClient  DownloadComplete_Test:vector  ETV
attr source  BitTorrentClient_DownloadComplete_Test
attr title  "Descargas completas (prueba), vector"
vector 31  BasicTopology.peer[15].bitTorrentApp.bitTorrentClient  DownloadComplete_Test:vector  ETV
attr source  BitTorrentClient_DownloadComplete_Test
attr title  "Descargas completas (prueba), vector"
vector 33  BasicTopology.peer[16].bitTorrentApp.bitTorrentClient  DownloadComplete_Test:vector  ETV
attr source  BitTorrentClient_DownloadComplete_Test
attr title  "Descargas completas (prueba), vector"
vector 35  BasicTopology.peer[17].bitTorrentApp.bitTorrentClient  DownloadComplete_Test:vector  ETV
attr source  BitTorrentClient_DownloadComplete_Test
attr title  "Descargas completas (prueba), vector"
vector 37  BasicTopology.peer[18].bitTorrentApp.bitTorrentClient  DownloadComplete_Test:vector  ETV
attr source  BitTorrentClient_DownloadComplete_Test
attr title  "Descargas completas (prueba), vector"
vector 39  BasicTopology.peer[19].bitTorrentApp.bitTorrentClient  DownloadComplete_Test:vector  ETV
attr source  BitTorrentClient_DownloadComplete_Test
attr title  "Descargas completas (prueba), vector"
vector 41  BasicTopology.peer[20].bitTorrentApp.bitTorrentClient  DownloadComplete_Test:vector  ETV
attr source  BitTorrentClient_DownloadComplete_Test
attr title  "Descargas completas (prueba), vector"
vector 43  BasicTopology.peer[21].bitTorrentApp.bitTorrentClient  DownloadComplete_Test:vector  ETV
attr source  BitTorrentClient_DownloadComplete_Test
attr title  "Descargas completas (prueba), vector"
vector 45  BasicTopology.peer[22].bitTorrentApp.bitTorrentClient  DownloadComplete_Test:vector  ETV
attr source  BitTorrentClient_DownloadComplete_Test
attr title  "Descargas completas (prueba), vector"
vector 47  BasicTopology.peer[23].bitTorrentApp.bitTorrentClient  DownloadComplete_Test:vector  ETV
attr source  BitTorrentClient_DownloadComplete_Test
attr title  "Descargas completas (prueba), vector"
vector 49  BasicTopology.peer[24].bitTorrentApp.bitTorrentClient  DownloadComplete_Test:vector  ETV
attr source  BitTorrentClient_DownloadComplete_Test
attr title  "Descargas completas (prueba), vector"
vector 833  BasicTopology.peer[0].bitTorrentApp.bitTorrentClient.contentManager_26  TotalBytesUploaded:vector  ETV
attr source  ContentManager_TotalBytesUploaded
attr title  "Total of Bytes Uploaded, vector"
attr unit  B
vector 840  BasicTopology.peer[1].bitTorrentApp.bitTorrentClient.contentManager_26  TotalBytesDownloaded:vector  ETV
attr source  ContentManager_TotalBytesDownloaded
attr title  "Total of Bytes Downloaded, vector"
attr unit  B
vector 944  BasicTopology.peer[14].bitTorrentApp.bitTorrentClient.contentManager_26  TotalBytesDownloaded:vector  ETV
attr source  ContentManager_TotalBytesDownloaded
attr title  "Total of Bytes Downloaded, vector"
attr unit  B
vector 920  BasicTopology.peer[11].bitTorrentApp.bitTorrentClient.contentManager_26  TotalBytesDownloaded:vector  ETV
attr source  ContentManager_TotalBytesDownloaded
attr title  "Total of Bytes Downloaded, vector"
attr unit  B
vector 943  BasicTopology.peer[14].bitTorrentApp.bitTorrentClient.contentManager_26  PiecesDownloaded:vector  ETV
attr source  ContentManager_PieceDownloaded
attr title  "Pieces Downloaded, vector"
vector 945  BasicTopology.peer[14].bitTorrentApp.bitTorrentClient.contentManager_26  TotalBytesUploaded:vector  ETV
attr source  ContentManager_TotalBytesUploaded
attr title  "Total of Bytes Uploaded, vector"
attr unit  B
vector 928  BasicTopology.peer[12].bitTorrentApp.bitTorrentClient.contentManager_26  TotalBytesDownloaded:vector  ETV
attr source  ContentManager_TotalBytesDownloaded
attr title  "Total of Bytes Downloaded, vector"
attr unit  B
vector 888  BasicTopology.peer[7].bitTorrentApp.bitTorrentClient.contentManager_26  TotalBytesDownloaded:vector  ETV
attr source  ContentManager_TotalBytesDownloaded
attr title  "Total of Bytes Downloaded, vector"
attr unit  B
vector 839  BasicTopology.peer[1].bitTorrentApp.bitTorrentClient.contentManager_26  PiecesDownloaded:vector  ETV
attr source  ContentManager_PieceDownloaded
attr title  "Pieces Downloaded, vector"
vector 841  BasicTopology.peer[1].bitTorrentApp.bitTorrentClient.contentManager_26  TotalBytesUploaded:vector  ETV
attr source  ContentManager_TotalBytesUploaded
attr title  "Total of Bytes Uploaded, vector"
attr unit  B
vector 848  BasicTopology.peer[2].bitTorrentApp.bitTorrentClient.contentManager_26  TotalBytesDownloaded:vector  ETV
attr source  ContentManager_TotalBytesDownloaded
attr title  "Total of Bytes Downloaded, vector"
attr unit  B
vector 919  BasicTopology.peer[11].bitTorrentApp.bitTorrentClient.contentManager_26  PiecesDownloaded:vector  ETV
attr source  ContentManager_PieceDownloaded
attr title  "Pieces Downloaded, vector"
vector 921  BasicTopology.peer[11].bitTorrentApp.bitTorrentClient.contentManager_26  TotalBytesUploaded:vector  ETV
attr source  ContentManager_TotalBytesUploaded
attr title  "Total of Bytes Uploaded, vector"
attr unit  B
vector 1000  BasicTopology.peer[21].bitTorrentApp.bitTorrentClient.contentManager_26  TotalBytesDownloaded:vector  ETV
attr source  ContentManager_TotalBytesDownloaded
attr title  "Total of Bytes Downloaded, vector"
attr unit  B
vector 999  BasicTopology.peer[21].bitTorrentApp.bitTorrentClient.contentManager_26  PiecesDownloaded:vector  ETV
attr source  ContentManager_PieceDownloaded
attr title  "Pieces Downloaded, vector"
vector 1001  BasicTopology.peer[21].bitTorrentApp.bitTorrentClient.contentManager_26  TotalBytesUploaded:vector  ETV
attr source  ContentManager_TotalBytesUploaded
attr title  "Total of Bytes Uploaded, vector"
attr unit  B
vector 936  BasicTopology.peer[13].bitTorrentApp.bitTorrentClient.contentManager_26  TotalBytesDownloaded:vector  ETV
attr source  ContentManager_TotalBytesDownloaded
attr title  "Total of Bytes Downloaded, vector"
attr unit  B
vector 1016  BasicTopology.peer[23].bitTorrentApp.bitTorrentClient.contentManager_26  TotalBytesDownloaded:vector  ETV
attr source  ContentManager_TotalBytesDownloaded
attr title  "Total of Bytes Downloaded, vector"
attr unit  B
vector 887  BasicTopology.peer[7].bitTorrentApp.bitTorrentClient.contentManager_26  PiecesDownloaded:vector  ETV
attr source  ContentManager_PieceDownloaded
attr title  "Pieces Downloaded, vector"
vector 889  BasicTopology.peer[7].bitTorrentApp.bitTorrentClient.contentManager_26  TotalBytesUploaded:vector  ETV
attr source  ContentManager_TotalBytesUploaded
attr title  "Total of Bytes Uploaded, vector"
attr unit  B
vector 952  BasicTopology.peer[15].bitTorrentApp.bitTorrentClient.contentManager_26  TotalBytesDownloaded:vector  ETV
attr source  ContentManager_TotalBytesDownloaded
attr title  "Total of Bytes Downloaded, vector"
attr unit  B
vector 904  BasicTopology.peer[9].bitTorrentApp.bitTorrentClient.contentManager_26  TotalBytesDownloaded:vector  ETV
attr source  ContentManager_TotalBytesDownloaded
attr title  "Total of Bytes Downloaded, vector"
attr unit  B
vector 856  BasicTopology.peer[3].bitTorrentApp.bitTorrentClient.contentManager_26  TotalBytesDownloaded:vector  ETV
attr source  ContentManager_TotalBytesDownloaded
attr title  "Total of Bytes Downloaded, vector"
attr unit  B
vector 855  BasicTopology.peer[3].bitTorrentApp.bitTorrentClient.contentManager_26  PiecesDownloaded:vector  ETV
attr source  ContentManager_PieceDownloaded
attr title  "Pieces Downloaded, vector"
vector 912  BasicTopology.peer[10].bitTorrentApp.bitTorrentClient.contentManager_26  TotalBytesDownloaded:vector  ETV
attr source  ContentManager_TotalBytesDownloaded
attr title  "Total of Bytes Downloaded, vector"
attr unit  B
vector 857  BasicTopology.peer[3].bitTorrentApp.bitTorrentClient.contentManager_26  TotalBytesUploaded:vector  ETV
attr source  ContentManager_TotalBytesUploaded
attr title  "Total of Bytes Uploaded, vector"
attr unit  B
vector 864  BasicTopology.peer[4].bitTorrentApp.bitTorrentClient.contentManager_26  TotalBytesDownloaded:vector  ETV
attr source  ContentManager_TotalBytesDownloaded
attr title  "Total of Bytes Downloaded, vector"
attr unit  B
vector 896  BasicTopology.peer[8].bitTorrentApp.bitTorrentClient.contentManager_26  TotalBytesDownloaded:vector  ETV
attr source  ContentManager_TotalBytesDownloaded
attr title  "Total of Bytes Downloaded, vector"
attr unit  B
vector 992  BasicTopology.peer[20].bitTorrentApp.bitTorrentClient.contentManager_26  TotalBytesDownloaded:vector  ETV
attr source  ContentManager_TotalBytesDownloaded
attr title  "Total of Bytes Downloaded, vector"
attr unit  B
vector 903  BasicTopology.peer[9].bitTorrentApp.bitTorrentClient.contentManager_26  PiecesDownloaded:vector  ETV
attr source  ContentManager_PieceDownloaded
attr title  "Pieces Downloaded, vector"
vector 905  BasicTopology.peer[9].bitTorrentApp.bitTorrentClient.contentManager_26  TotalBytesUploaded:vector  ETV
attr source  ContentManager_TotalBytesUploaded
attr title  "Total of Bytes Uploaded, vector"
attr unit  B
vector 968  BasicTopology.peer[17].bitTorrentApp.bitTorrentClient.contentManager_26  TotalBytesDownloaded:vector  ETV
attr source  ContentManager_TotalBytesDownloaded
attr title  "Total of Bytes Downloaded, vector"
attr unit  B
vector 951  BasicTopology.peer[15].bitTorrentApp.bitTorrentClient.contentManager_26  PiecesDownloaded:vector  ETV
attr source  ContentManager_PieceDownloaded
attr title  "Pieces Downloaded, vector"
vector 872  BasicTopology.peer[5].bitTorrentApp.bitTorrentClient.contentManager_26  TotalBytesDownloaded:vector  ETV
attr source  ContentManager_TotalBytesDownloaded
attr title  "Total of Bytes Downloaded, vector"
attr unit  B
vector 880  BasicTopology.peer[6].bitTorrentApp.bitTorrentClient.contentManager_26  TotalBytesDownloaded:vector  ETV
attr source  ContentManager_TotalBytesDownloaded
attr title  "Total of Bytes Downloaded, vector"
attr unit  B
vector 960  BasicTopology.peer[16].bitTorrentApp.bitTorrentClient.contentManager_26  TotalBytesDownloaded:vector  ETV
attr source  ContentManager_TotalBytesDownloaded
attr title  "Total of Bytes Downloaded, vector"
attr unit  B
vector 991  BasicTopology.peer[20].bitTorrentApp.bitTorrentClient.contentManager_26  PiecesDownloaded:vector  ETV
attr source  ContentManager_PieceDownloaded
attr title  "Pieces Downloaded, vector"
vector 993  BasicTopology.peer[20].bitTorrentApp.bitTorrentClient.contentManager_26  TotalBytesUploaded:vector  ETV
attr source  ContentManager_TotalBytesUploaded
attr title  "Total of Bytes Uploaded, vector"
attr unit  B
vector 935  BasicTopology.peer[13].bitTorrentApp.bitTorrentClient.contentManager_26  PiecesDownloaded:vector  ETV
attr source  ContentManager_PieceDownloaded
attr title  "Pieces Downloaded, vector"
vector 984  BasicTopology.peer[19].bitTorrentApp.bitTorrentClient.contentManager_26  TotalBytesDownloaded:vector  ETV
attr source  ContentManager_TotalBytesDownloaded
attr title  "Total of Bytes Downloaded, vector"
attr unit  B
vector 976  BasicTopology.peer[18].bitTorrentApp.bitTorrentClient.contentManager_26  TotalBytesDownloaded:vector  ETV
attr source  ContentManager_TotalBytesDownloaded
attr title  "Total of Bytes Downloaded, vector"
attr unit  B
vector 879  BasicTopology.peer[6].bitTorrentApp.bitTorrentClient.contentManager_26  PiecesDownloaded:vector  ETV
attr source  ContentManager_PieceDownloaded
attr title  "Pieces Downloaded, vector"
vector 1024  BasicTopology.peer[24].bitTorrentApp.bitTorrentClient.contentManager_26  TotalBytesDownloaded:vector  ETV
attr source  ContentManager_TotalBytesDownloaded
attr title  "Total of Bytes Downloaded, vector"
attr unit  B
vector 895  BasicTopology.peer[8].bitTorrentApp.bitTorrentClient.contentManager_26  PiecesDownloaded:vector  ETV
attr source  ContentManager_PieceDownloaded
attr title  "Pieces Downloaded, vector"
vector 983  BasicTopology.peer[19].bitTorrentApp.bitTorrentClient.contentManager_26  PiecesDownloaded:vector  ETV
attr source  ContentManager_PieceDownloaded
attr title  "Pieces Downloaded, vector"
vector 1023  BasicTopology.peer[24].bitTorrentApp.bitTorrentClient.contentManager_26  PiecesDownloaded:vector  ETV
attr source  ContentManager_PieceDownloaded
attr title  "Pieces Downloaded, vector"
vector 967  BasicTopology.peer[17].bitTorrentApp.bitTorrentClient.contentManager_26  PiecesDownloaded:vector  ETV
attr source  ContentManager_PieceDownloaded
attr title  "Pieces Downloaded, vector"
vector 1008  BasicTopology.peer[22].bitTorrentApp.bitTorrentClient.contentManager_26  TotalBytesDownloaded:vector  ETV
attr source  ContentManager_TotalBytesDownloaded
attr title  "Total of Bytes Downloaded, vector"
attr unit  B
vector 937  BasicTopology.peer[13].bitTorrentApp.bitTorrentClient.contentManager_26  TotalBytesUploaded:vector  ETV
attr source  ContentManager_TotalBytesUploaded
attr title  "Total of Bytes Uploaded, vector"
attr unit  B
vector 863  BasicTopology.peer[4].bitTorrentApp.bitTorrentClient.contentManager_26  PiecesDownloaded:vector  ETV
attr source  ContentManager_PieceDownloaded
attr title  "Pieces Downloaded, vector"
vector 959  BasicTopology.peer[16].bitTorrentApp.bitTorrentClient.contentManager_26  PiecesDownloaded:vector  ETV
attr source  ContentManager_PieceDownloaded
attr title  "Pieces Downloaded, vector"
vector 847  BasicTopology.peer[2].bitTorrentApp.bitTorrentClient.contentManager_26  PiecesDownloaded:vector  ETV
attr source  ContentManager_PieceDownloaded
attr title  "Pieces Downloaded, vector"
vector 975  BasicTopology.peer[18].bitTorrentApp.bitTorrentClient.contentManager_26  PiecesDownloaded:vector  ETV
attr source  ContentManager_PieceDownloaded
attr title  "Pieces Downloaded, vector"
vector 871  BasicTopology.peer[5].bitTorrentApp.bitTorrentClient.contentManager_26  PiecesDownloaded:vector  ETV
attr source  ContentManager_PieceDownloaded
attr title  "Pieces Downloaded, vector"
vector 927  BasicTopology.peer[12].bitTorrentApp.bitTorrentClient.contentManager_26  PiecesDownloaded:vector  ETV
attr source  ContentManager_PieceDownloaded
attr title  "Pieces Downloaded, vector"
vector 929  BasicTopology.peer[12].bitTorrentApp.bitTorrentClient.contentManager_26  TotalBytesUploaded:vector  ETV
attr source  ContentManager_TotalBytesUploaded
attr title  "Total of Bytes Uploaded, vector"
attr unit  B
vector 1007  BasicTopology.peer[22].bitTorrentApp.bitTorrentClient.contentManager_26  PiecesDownloaded:vector  ETV
attr source  ContentManager_PieceDownloaded
attr title  "Pieces Downloaded, vector"
vector 1015  BasicTopology.peer[23].bitTorrentApp.bitTorrentClient.contentManager_26  PiecesDownloaded:vector  ETV
attr source  ContentManager_PieceDownloaded
attr title  "Pieces Downloaded, vector"
vector 1009  BasicTopology.peer[22].bitTorrentApp.bitTorrentClient.contentManager_26  TotalBytesUploaded:vector  ETV
attr source  ContentManager_TotalBytesUploaded
attr title  "Total of Bytes Uploaded, vector"
attr unit  B
vector 849  BasicTopology.peer[2].bitTorrentApp.bitTorrentClient.contentManager_26  TotalBytesUploaded:vector  ETV
attr source  ContentManager_TotalBytesUploaded
attr title  "Total of Bytes Uploaded, vector"
attr unit  B
vector 1017  BasicTopology.peer[23].bitTorrentApp.bitTorrentClient.contentManager_26  TotalBytesUploaded:vector  ETV
attr source  ContentManager_TotalBytesUploaded
attr title  "Total of Bytes Uploaded, vector"
attr unit  B
vector 911  BasicTopology.peer[10].bitTorrentApp.bitTorrentClient.contentManager_26  PiecesDownloaded:vector  ETV
attr source  ContentManager_PieceDownloaded
attr title  "Pieces Downloaded, vector"
vector 1025  BasicTopology.peer[24].bitTorrentApp.bitTorrentClient.contentManager_26  TotalBytesUploaded:vector  ETV
attr source  ContentManager_TotalBytesUploaded
attr title  "Total of Bytes Uploaded, vector"
attr unit  B
vector 865  BasicTopology.peer[4].bitTorrentApp.bitTorrentClient.contentManager_26  TotalBytesUploaded:vector  ETV
attr source  ContentManager_TotalBytesUploaded
attr title  "Total of Bytes Uploaded, vector"
attr unit  B
vector 913  BasicTopology.peer[10].bitTorrentApp.bitTorrentClient.contentManager_26  TotalBytesUploaded:vector  ETV
attr source  ContentManager_TotalBytesUploaded
attr title  "Total of Bytes Uploaded, vector"
attr unit  B
vector 881  BasicTopology.peer[6].bitTorrentApp.bitTorrentClient.contentManager_26  TotalBytesUploaded:vector  ETV
attr source  ContentManager_TotalBytesUploaded
attr title  "Total of Bytes Uploaded, vector"
attr unit  B
vector 953  BasicTopology.peer[15].bitTorrentApp.bitTorrentClient.contentManager_26  TotalBytesUploaded:vector  ETV
attr source  ContentManager_TotalBytesUploaded
attr title  "Total of Bytes Uploaded, vector"
attr unit  B
vector 969  BasicTopology.peer[17].bitTorrentApp.bitTorrentClient.contentManager_26  TotalBytesUploaded:vector  ETV
attr source  ContentManager_TotalBytesUploaded
attr title  "Total of Bytes Uploaded, vector"
attr unit  B
vector 873  BasicTopology.peer[5].bitTorrentApp.bitTorrentClient.contentManager_26  TotalBytesUploaded:vector  ETV
attr source  ContentManager_TotalBytesUploaded
attr title  "Total of Bytes Uploaded, vector"
attr unit  B
vector 961  BasicTopology.peer[16].bitTorrentApp.bitTorrentClient.contentManager_26  TotalBytesUploaded:vector  ETV
attr source  ContentManager_TotalBytesUploaded
attr title  "Total of Bytes Uploaded, vector"
attr unit  B
vector 897  BasicTopology.peer[8].bitTorrentApp.bitTorrentClient.contentManager_26  TotalBytesUploaded:vector  ETV
attr source  ContentManager_TotalBytesUploaded
attr title  "Total of Bytes Uploaded, vector"
attr unit  B
3	20589 64 103 67322424 36001 36116.408851470578 2 36001 36116.408851471 72117.408851471 2600466989.3266
5	20653 64 104 75099966 36001 36132.291671058886 2 36001 36132.291671059 72133.291671059 2601614502.4025
7	20717 64 105 69552707 36001 36120.694510322755 2 36001 36120.694510323 72121.694510323 2600776572.9081
9	20781 64 106 83086972 36001 36179.947127964292 2 36001 36179.947127964 72180.947127964 2605060575.1823
11	20845 66 107 79113064 36001 36144.673416042381 2 36001 36144.673416042 72145.673416042 2602509417.3524
13	20911 66 108 73598232 36001 36129.222853098685 2 36001 36129.222853099 72130.222853099 2601392744.9689
15	20977 66 109 82628819 36001 36174.066936372666 2 36001 36174.066936373 72175.066936373 2604635119.7172
17	21043 66 110 67974386 36001 36117.662528768415 2 36001 36117.662528768 72118.662528768 2600557547.542
19	21109 66 111 82316508 36001 36171.573615654559 2 36001 36171.573615655 72172.573615655 2604454738.8327
21	21175 66 112 80338240 36001 36148.608240121022 2 36001 36148.608240121 72149.608240121 2602793878.6977
23	21241 66 113 72238149 36001 36126.645525718313 2 36001 36126.645525718 72127.645525718 2601206517.9409
25	21307 66 114 75844798 36001 36134.412296619477 2 36001 36134.412296619 72135.412296619 2601767753.0221
27	21373 66 115 78416969 36001 36141.512692855807 2 36001 36141.512692856 72142.512692856 2602280940.7279
29	21439 66 116 81842510 36001 36160.410352120627 2 36001 36160.410352121 72161.410352121 2603647277.8338
31	21505 66 117 81256608 36001 36152.997618407434 2 36001 36152.997618407 72153.997618407 2603111237.7966
33	21571 65 118 85399743 36001 36304.79787815804 2 36001 36304.797878158 72305.797878158 2614110349.9739
35	21636 65 119 77528876 36001 36139.31702325679 2 36001 36139.317023257 72140.317023257 2602122235.9075
37	21701 66 120 85314256 36001 36304.030056026363 2 36001 36304.030056026 72305.030056026 2614054599.3089
39	21767 66 121 82724687 36001 36175.304519598992 2 36001 36175.304519599 72176.304519599 2604724658.0857
41	21833 66 122 81501727 36001 36154.929861386048 2 36001 36154.929861386 72155.929861386 2603250954.2817
43	21899 65 123 72435433 36001 36127.05147700497 2 36001 36127.051477005 72128.051477005 2601235849.4222
45	21964 65 124 81622692 36001 36156.886927619802 2 36001 36156.88692762 72157.88692762 2603392473.2967
47	22029 65 125 75179570 36001 36132.507188559704 2 36001 36132.50718856 72133.50718856 2601630076.7313
49	22094 66 126 76888851 36001 36137.379947938576 2 36001 36137.379947939 72138.379947939 2601982230.5017
833	22160 24343 545418 80593612 36003.043203896549 36150.557977634717 620 16384 10158080 3154083840 2.1376849485496e+16
839	46503 815 1351377 67322424 36006.252953553485 36116.408851470578 24 0 23 276 4324
840	47318 7874 549572 67322424 36003.054467887899 36116.408851470578 202 16384 3309568 335921152 7.4300384083968e+14
841	55192 16330 1378319 72310156 36006.293422131173 36126.757168583563 414 16384 6782976 1407467520 6.3722322552422e+15
847	71522 825 5354550 75099966 36013.372112804647 36132.291671058886 24 0 23 276 4324
848	72347 7546 1392276 75099966 36006.324142166551 36132.291671058886 192 16384 3145728 303562752 6.3827508985856e+14
849	79893 11744 8010095 57487103 36017.850580809304 36096.799523513496 297 16384 4866048 725041152 2.3560163898163e+15
855	91637 823 2200922 69552707 36008.037396475838 36120.694510322755 24 0 23 276 4324
856	92460 7569 2080927 69552707 36007.78991245996 36120.694510322755 192 16384 3145728 303562752 6.3827508985856e+14
857	100029 5023 2220436 57637675 36008.062041135313 36097.104243238423 128 16384 2097152 135266304 1.8985473435238e+14
863	105052 825 4900774 83086972 36012.623943521446 36179.947127964292 24 0 23 276 4324
864	105877 8373 2235864 83086972 36008.088196004781 36179.947127964292 212 16384 3473408 369917952 8.586042277888e+14
865	114250 9781 12693065 85118123 36025.081590422903 36302.457188926266 247 16384 4046848 501809152 1.3565707891507e+15
871	124031 826 5712867 79113064 36013.927865108737 36144.673416042381 24 0 23 276 4324
872	124857 8060 2706875 79113064 36008.992065468258 36144.673416042381 204 16384 3342336 342589440 7.6523700748288e+14
873	132917 4202 22666129 85164155 36040.066244893462 36302.604550016239 107 16384 1753088 94666752 1.1115643797504e+14
879	137119 825 3665874 73598232 36010.512114225123 36129.222853098685 24 0 23 276 4324
880	137944 8056 2864948 73598232 36009.182756864611 36129.222853098685 204 16384 3342336 342589440 7.6523700748288e+14
881	146000 1864 15243178 72768557 36029.152024059026 36127.631638627324 48 16384 786432 19267584 10206989778944
887	147864 828 1870686 82628819 36007.521578071128 36174.066936372666 24 0 23 276 4324
888	148692 7584 1287673 82628819 36006.149168146672 36174.066936372666 192 16384 3145728 303562752 6.3827508985856e+14
889	156276 4846 1929624 82680563 36007.60120572749 36175.1410696939 124 16384 2031616 126976000 1.72671107072e+14
895	161122 829 4082052 67974386 36011.190341087894 36117.662528768415 24 0 23 276 4324
896	161951 7816 2280494 67974386 36008.183848939941 36117.662528768415 198 16384 3244032 322781184 6.9983780890214e+14
897	169767 537 47266056 63248977 36078.70621352567 36108.434627123258 14 16384 229376 1720320 272461987840
903	170304 824 2582699 82316508 36008.837691767593 36171.573615654559 24 0 23 276 4324
904	171128 7584 1957401 82316508 36007.630136418106 36171.573615654559 192 16384 3145728 303562752 6.3827508985856e+14
905	178712 6167 2595621 81015534 36008.856417860032 36151.897676893207 157 16384 2572288 203210752 3.4958752088064e+14
911	184879 827 9154775 80338240 36019.537125808209 36148.608240121022 24 0 23 276 4324
912	185706 7577 2220201 80338240 36008.061269222139 36148.608240121022 192 16384 3145728 303562752 6.3827508985856e+14
913	193283 4916 13053638 80371646 36025.651916891106 36148.667902875754 125 16384 2048000 129024000 1.76865411072e+14
919	198199 822 1488514 72238149 36006.544847008979 36126.645525718313 24 0 23 276 4324
920	199021 8260 980000 72238149 36005.372443098096 36126.645525718313 210 16384 3440640 362987520 8.3458864971776e+14
921	207281 21014 1515175 72299927 36006.597513567931 36126.734552993936 533 16384 8732672 2331623424 1.3586935498932e+16
927	228295 828 5992637 75844798 36014.388210498741 36134.412296619477 24 0 23 276 4324
928	229123 8181 1281841 76095637 36006.140418943117 36134.887556255442 207 16384 3391488 352714752 7.9941152538624e+14
929	237304 7624 6030866 58368670 36014.45960537229 36098.635573647396 194 16384 3178496 309903360 6.5837687898112e+14
935	244928 826 3138633 78416969 36009.659781990708 36141.512692855807 24 0 23 276 4324
936	245754 8130 1850302 78416969 36007.491112677436 36141.512692855807 206 16384 3375104 349323264 7.879093345321e+14
937	253884 8917 4700855 76029935 36012.301433078039 36134.746269346071 228 16384 3735552 427720704 1.0675178795172e+15
943	262801 825 1172690 81842510 36005.892805828159 36160.410352120627 24 0 23 276 4324
944	263626 8438 579031 81842510 36003.226141778702 36160.410352120627 214 16384 3506176 376913920 8.8307614613504e+14
945	272064 8793 1198874 53620851 36005.972855190723 36089.466830076809 225 16384 3686400 416563200 1.0260207108096e+15
951	280857 822 2680152 81256608 36008.959764878498 36152.997618407434 24 0 23 276 4324
952	281679 8570 1954594 81256608 36007.627316576644 36152.997618407434 217 16384 3555328 387530752 9.2064905691136e+14
953	290249 4002 17873266 72775194 36033.186818456309 36127.640093264847 102 16384 1671168 86065152 96356249108480
959	294251 825 5056633 85399743 36012.852610495457 36304.79787815804 24 0 23 276 4324
960	295076 8339 2974086 85399743 36009.385335747557 36304.79787815804 211 16384 3457024 366444544 8.4653966465434e+14
961	303415 1197 45387728 81290311 36075.551910933654 36153.512101992878 31 16384 507904 8126464 2796023709696
967	304612 825 4624694 77528876 36012.133704115113 36139.31702325679 24 0 23 276 4324
968	305437 8683 2645056 77528876 36008.919481348281 36139.31702325679 220 16384 3604480 398295040 9.5927289249792e+14
969	314120 4089 18192566 79431567 36033.665873178641 36145.480375428027 104 16384 1703936 89456640 1.0210747875328e+14
975	318209 826 5405007 85314256 36013.439791535483 36304.030056026363 24 0 23 276 4324
976	319035 7773 3522411 85314256 36010.265284944615 36304.030056026363 197 16384 3227648 319537152 6.8931406528512e+14
983	326808 826 4244308 82724687 36011.417293066739 36175.304519598992 24 0 23 276 4324
984	327634 8395 3471273 82724687 36010.199140480198 36175.304519598992 213 16384 3489792 373407744 8.7078287599206e+14
991	336029 823 3022427 81501727 36009.46945461014 36154.929861386048 24 0 23 276 4324
992	336852 7537 2301004 81501727 36008.227758963291 36154.929861386048 192 16384 3145728 303562752 6.3827508985856e+14
993	344389 11631 3053119 82473639 36009.516849090593 36173.72046676751 295 16384 4833280 715325440 2.3088187257651e+15
999	356020 824 1755099 72435433 36007.274660867126 36127.05147700497 24 0 23 276 4324
1000	356844 7730 1588257 72435433 36006.952383542949 36127.05147700497 192 16384 3145728 303562752 6.3827508985856e+14
1001	364574 11808 1771419 80654677 36007.304534931795 36151.128127061825 292 16384 4784128 700874752 2.2392107276698e+15
1007	376382 851 6081220 81622692 36014.547981760941 36156.886927619802 24 0 23 276 4324