version 2
run Test-1-20200424-00:11:00-4464
attr configname Test
attr datetime 20200424-00:11:00
attr experiment "\"Simulation Test\""
attr inifile BasicConfig.ini
attr iterationvars ""
attr iterationvars2 $repetition=1
attr measurement "\"Peers: $peers, Rate: $rate\""
attr network BasicTopology
attr processid 4464
attr repetition 1
attr replication #1
attr resultdir results
attr runnumber 1
attr seedset 1

vector 3  BasicTopology.peer[1].bitTorrentApp.bitTorrentClient  DownloadComplete_Test:vector  ETV
attr source  BitTorrentClient_DownloadComplete_Test
attr title  "Descargas completas (prueba), vector"
vector 5  BasicTopology.peer[2].bitTorrentApp.bitTorrentClient  DownloadComplete_Test:vector  ETV
attr source  BitTorrentClient_DownloadComplete_Test
attr title  "Descargas completas (prueba), vector"
vector 7  BasicTopology.peer[3].bitTorrentApp.bitTorrentClient  DownloadComplete_Test:vector  ETV
attr source  BitTorrentClient_DownloadComplete_Test
attr title  "Descargas completas (prueba), vector"
vector 9  BasicTopology.peer[4].bitTorrentApp.bitTorrentClient  DownloadComplete_Test:vector  ETV
attr source  BitTorrentClient_DownloadComplete_Test
attr title  "Descargas completas (prueba), vector"
vector 11  BasicTopology.peer[5].bitTorrentApp.bitTorrentClient  DownloadComplete_Test:vector  ETV
attr source  BitTorrentClient_DownloadComplete_Test
attr title  "Descargas completas (prueba), vector"
vector 13  BasicTopology.peer[6].bitTorrentApp.bitTorrentClient  DownloadComplete_Test:vector  ETV
attr source  BitTorrentClient_DownloadComplete_Test
attr title  "Descargas completas (prueba), vector"
vector 15  BasicTopology.peer[7].bitTorrentApp.bitTorrentClient  DownloadComplete_Test:vector  ETV
attr source  BitTorrentClient_DownloadComplete_Test
attr title  "Descargas completas (prueba), vector"
vector 17  BasicTopology.peer[8].bitTorrentApp.bitTorrentClient  DownloadComplete_Test:vector  ETV
attr source  BitTorrentClient_DownloadComplete_Test
attr title  "Descargas completas (prueba), vector"
vector 19  BasicTopology.peer[9].bitTorrentApp.bitTorrentClient  DownloadComplete_Test:vector  ETV
attr source  BitTorrentClient_DownloadComplete_Test
attr title  "Descargas completas (prueba), vector"
vector 21  BasicTopology.peer[10].bitTorrentApp.bitTorrentClient  DownloadComplete_Test:vector  ETV
attr source  BitTorrentClient_DownloadComplete_Test
attr title  "Descargas completas (prueba), vector"
vector 23  BasicTopology.peer[11].bitTorrentApp.bitTorrentClient  DownloadComplete_Test:vector  ETV
attr source  BitTorrentClient_DownloadComplete_Test
attr title  "Descargas completas (prueba), vector"
vector 25  BasicTopology.peer[12].bitTorrentApp.bitTorrentClient  DownloadComplete_Test:vector  ETV
attr source  BitTorrentClient_DownloadComplete_Test
attr title  "Descargas completas (prueba), vector"
vector 27  BasicTopology.peer[13].bitTorrentApp.bitTorrentClient  DownloadComplete_Test:vector  ETV
attr source  BitTorrentClient_DownloadComplete_Test
attr title  "Descargas completas (prueba), vector"
vector 29  BasicTopology.peer[14].bitTorrentApp.bitTorrentClient  DownloadComplete_Test:vector  ETV
attr source  BitTorrentClient_DownloadComplete_Test
attr title  "Descargas completas (prueba), vector"
vector 31  BasicTopology.peer[15].bitTorrentApp.bitTorrentClient  DownloadComplete_Test:vector  ETV
attr source  BitTorrentClient_DownloadComplete_Test
attr title  "Descargas completas (prueba), vector"
vector 33  BasicTopology.peer[16].bitTorrentApp.bitTorrentClient  DownloadComplete_Test:vector  ETV
attr source  BitTorrentClient_DownloadComplete_Test
attr title  "Descargas completas (prueba), vector"
vector 35  BasicTopology.peer[17].bitTorrentApp.bitTorrentClient  DownloadComplete_Test:vector  ETV
attr source  BitTorrentClient_DownloadComplete_Test
attr title  "Descargas completas (prueba), vector"
vector 37  BasicTopology.peer[18].bitTorrentApp.bitTorrentClient  DownloadComplete_Test:vector  ETV
attr source  BitTorrentClient_DownloadComplete_Test
attr title  "Descargas completas (prueba), vector"
vector 39  BasicTopology.peer[19].bitTorrentApp.bitTorrentClient  DownloadComplete_Test:vector  ETV
attr source  BitTorrentClient_DownloadComplete_Test
attr title  "Descargas completas (prueba), vector"
vector 41  BasicTopology.peer[20].bitTorrentApp.bitTorrentClient  DownloadComplete_Test:vector  ETV
attr source  BitTorrentClient_DownloadComplete_Test
attr title  "Descargas completas (prueba), vector"
vector 43  BasicTopology.peer[21].bitTorrentApp.bitTorrentClient  DownloadComplete_Test:vector  ETV
attr source  BitTorrentClient_DownloadComplete_Test
attr title  "Descargas completas (prueba), vector"
vector 45  BasicTopology.peer[22].bitTorrentApp.bitTorrentClient  DownloadComplete_Test:vector  ETV
attr source  BitTorrentClient_DownloadComplete_Test
attr title  "Descargas completas (prueba), vector"
vector 47  BasicTopology.peer[23].bitTorrentApp.bitTorrentClient  DownloadComplete_Test:vector  ETV
attr source  BitTorrentClient_DownloadComplete_Test
attr title  "Descargas completas (prueba), vector"
vector 49  BasicTopology.peer[24].bitTorrentApp.bitTorrentClient  DownloadComplete_Test:vector  ETV
attr source  BitTorrentClient_DownloadComplete_Test
attr title  "Descargas completas (prueba), vector"
vector 833  BasicTopology.peer[0].bitTorrentApp.bitTorrentClient.contentManager_26  TotalBytesUploaded:vector  ETV
attr source  ContentManager_TotalBytesUploaded
attr title  "Total of Bytes Uploaded, vector"
attr unit  B
vector 840  BasicTopology.peer[1].bitTorrentApp.bitTorrentClient.contentManager_26  TotalBytesDownloaded:vector  ETV
attr source  ContentManager_TotalBytesDownloaded
attr title  "Total of Bytes Downloaded, vector"
attr unit  B
vector 960  BasicTopology.peer[16].bitTorrentApp.bitTorrentClient.contentManager_26  TotalBytesDownloaded:vector  ETV
attr source  ContentManager_TotalBytesDownloaded
attr title  "Total of Bytes Downloaded, vector"
attr unit  B
vector 839  BasicTopology.peer[1].bitTorrentApp.bitTorrentClient.contentManager_26  PiecesDownloaded:vector  ETV
attr source  ContentManager_PieceDownloaded
attr title  "Pieces Downloaded, vector"
vector 841  BasicTopology.peer[1].bitTorrentApp.bitTorrentClient.contentManager_26  TotalBytesUploaded:vector  ETV
attr source  ContentManager_TotalBytesUploaded
attr title  "Total of Bytes Uploaded, vector"
attr unit  B
vector 1016  BasicTopology.peer[23].bitTorrentApp.bitTorrentClient.contentManager_26  TotalBytesDownloaded:vector  ETV
attr source  ContentManager_TotalBytesDownloaded
attr title  "Total of Bytes Downloaded, vector"
attr unit  B
vector 1000  BasicTopology.peer[21].bitTorrentApp.bitTorrentClient.contentManager_26  TotalBytesDownloaded:vector  ETV
attr source  ContentManager_TotalBytesDownloaded
attr title  "Total of Bytes Downloaded, vector"
attr unit  B
vector 992  BasicTopology.peer[20].bitTorrentApp.bitTorrentClient.contentManager_26  TotalBytesDownloaded:vector  ETV
attr source  ContentManager_TotalBytesDownloaded
attr title  "Total of Bytes Downloaded, vector"
attr unit  B
vector 912  BasicTopology.peer[10].bitTorrentApp.bitTorrentClient.contentManager_26  TotalBytesDownloaded:vector  ETV
attr source  ContentManager_TotalBytesDownloaded
attr title  "Total of Bytes Downloaded, vector"
attr unit  B
vector 936  BasicTopology.peer[13].bitTorrentApp.bitTorrentClient.contentManager_26  TotalBytesDownloaded:vector  ETV
attr source  ContentManager_TotalBytesDownloaded
attr title  "Total of Bytes Downloaded, vector"
attr unit  B
vector 911  BasicTopology.peer[10].bitTorrentApp.bitTorrentClient.contentManager_26  PiecesDownloaded:vector  ETV
attr source  ContentManager_PieceDownloaded
attr title  "Pieces Downloaded, vector"
vector 913  BasicTopology.peer[10].bitTorrentApp.bitTorrentClient.contentManager_26  TotalBytesUploaded:vector  ETV
attr source  ContentManager_TotalBytesUploaded
attr title  "Total of Bytes Uploaded, vector"
attr unit  B
vector 1008  BasicTopology.peer[22].bitTorrentApp.bitTorrentClient.contentManager_26  TotalBytesDownloaded:vector  ETV
attr source  ContentManager_TotalBytesDownloaded
attr title  "Total of Bytes Downloaded, vector"
attr unit  B
vector 976  BasicTopology.peer[18].bitTorrentApp.bitTorrentClient.contentManager_26  TotalBytesDownloaded:vector  ETV
attr source  ContentManager_TotalBytesDownloaded
attr title  "Total of Bytes Downloaded, vector"
attr unit  B
vector 1015  BasicTopology.peer[23].bitTorrentApp.bitTorrentClient.contentManager_26  PiecesDownloaded:vector  ETV
attr source  ContentManager_PieceDownloaded
attr title  "Pieces Downloaded, vector"
vector 1017  BasicTopology.peer[23].bitTorrentApp.bitTorrentClient.contentManager_26  TotalBytesUploaded:vector  ETV
attr source  ContentManager_TotalBytesUploaded
attr title  "Total of Bytes Uploaded, vector"
attr unit  B
vector 848  BasicTopology.peer[2].bitTorrentApp.bitTorrentClient.contentManager_26  TotalBytesDownloaded:vector  ETV
attr source  ContentManager_TotalBytesDownloaded
attr title  "Total of Bytes Downloaded, vector"
attr unit  B
vector 944  BasicTopology.peer[14].bitTorrentApp.bitTorrentClient.contentManager_26  TotalBytesDownloaded:vector  ETV
attr source  ContentManager_TotalBytesDownloaded
attr title  "Total of Bytes Downloaded, vector"
attr unit  B
vector 999  BasicTopology.peer[21].bitTorrentApp.bitTorrentClient.contentManager_26  PiecesDownloaded:vector  ETV
attr source  ContentManager_PieceDownloaded
attr title  "Pieces Downloaded, vector"
vector 1001  BasicTopology.peer[21].bitTorrentApp.bitTorrentClient.contentManager_26  TotalBytesUploaded:vector  ETV
attr source  ContentManager_TotalBytesUploaded
attr title  "Total of Bytes Uploaded, vector"
attr unit  B
vector 880  BasicTopology.peer[6].bitTorrentApp.bitTorrentClient.contentManager_26  TotalBytesDownloaded:vector  ETV
attr source  ContentManager_TotalBytesDownloaded
attr title  "Total of Bytes Downloaded, vector"
attr unit  B
vector 991  BasicTopology.peer[20].bitTorrentApp.bitTorrentClient.contentManager_26  PiecesDownloaded:vector  ETV
attr source  ContentManager_PieceDownloaded
attr title  "Pieces Downloaded, vector"
vector 888  BasicTopology.peer[7].bitTorrentApp.bitTorrentClient.contentManager_26  TotalBytesDownloaded:vector  ETV
attr source  ContentManager_TotalBytesDownloaded
attr title  "Total of Bytes Downloaded, vector"
attr unit  B
vector 993  BasicTopology.peer[20].bitTorrentApp.bitTorrentClient.contentManager_26  TotalBytesUploaded:vector  ETV
attr source  ContentManager_TotalBytesUploaded
attr title  "Total of Bytes Uploaded, vector"
attr unit  B
vector 943  BasicTopology.peer[14].bitTorrentApp.bitTorrentClient.contentManager_26  PiecesDownloaded:vector  ETV
attr source  ContentManager_PieceDownloaded
attr title  "Pieces Downloaded, vector"
vector 945  BasicTopology.peer[14].bitTorrentApp.bitTorrentClient.contentManager_26  TotalBytesUploaded:vector  ETV
attr source  ContentManager_TotalBytesUploaded
attr title  "Total of Bytes Uploaded, vector"
attr unit  B
vector 872  BasicTopology.peer[5].bitTorrentApp.bitTorrentClient.contentManager_26  TotalBytesDownloaded:vector  ETV
attr source  ContentManager_TotalBytesDownloaded
attr title  "Total of Bytes Downloaded, vector"
attr unit  B
vector 864  BasicTopology.peer[4].bitTorrentApp.bitTorrentClient.contentManager_26  TotalBytesDownloaded:vector  ETV
attr source  ContentManager_TotalBytesDownloaded
attr title  "Total of Bytes Downloaded, vector"
attr unit  B
vector 952  BasicTopology.peer[15].bitTorrentApp.bitTorrentClient.contentManager_26  TotalBytesDownloaded:vector  ETV
attr source  ContentManager_TotalBytesDownloaded
attr title  "Total of Bytes Downloaded, vector"
attr unit  B
vector 871  BasicTopology.peer[5].bitTorrentApp.bitTorrentClient.contentManager_26  PiecesDownloaded:vector  ETV
attr source  ContentManager_PieceDownloaded
attr title  "Pieces Downloaded, vector"
vector 873  BasicTopology.peer[5].bitTorrentApp.bitTorrentClient.contentManager_26  TotalBytesUploaded:vector  ETV
attr source  ContentManager_TotalBytesUploaded
attr title  "Total of Bytes Uploaded, vector"
attr unit  B
vector 856  BasicTopology.peer[3].bitTorrentApp.bitTorrentClient.contentManager_26  TotalBytesDownloaded:vector  ETV
attr source  ContentManager_TotalBytesDownloaded
attr title  "Total of Bytes Downloaded, vector"
attr unit  B
vector 968  BasicTopology.peer[17].bitTorrentApp.bitTorrentClient.contentManager_26  TotalBytesDownloaded:vector  ETV
attr source  ContentManager_TotalBytesDownloaded
attr title  "Total of Bytes Downloaded, vector"
attr unit  B
vector 928  BasicTopology.peer[12].bitTorrentApp.bitTorrentClient.contentManager_26  TotalBytesDownloaded:vector  ETV
attr source  ContentManager_TotalBytesDownloaded
attr title  "Total of Bytes Downloaded, vector"
attr unit  B
vector 935  BasicTopology.peer[13].bitTorrentApp.bitTorrentClient.contentManager_26  PiecesDownloaded:vector  ETV
attr source  ContentManager_PieceDownloaded
attr title  "Pieces Downloaded, vector"
vector 1024  BasicTopology.peer[24].bitTorrentApp.bitTorrentClient.contentManager_26  TotalBytesDownloaded:vector  ETV
attr source  ContentManager_TotalBytesDownloaded
attr title  "Total of Bytes Downloaded, vector"
attr unit  B
vector 904  BasicTopology.peer[9].bitTorrentApp.bitTorrentClient.contentManager_26  TotalBytesDownloaded:vector  ETV
attr source  ContentManager_TotalBytesDownloaded
attr title  "Total of Bytes Downloaded, vector"
attr unit  B
vector 967  BasicTopology.peer[17].bitTorrentApp.bitTorrentClient.contentManager_26  PiecesDownloaded:vector  ETV
attr source  ContentManager_PieceDownloaded
attr title  "Pieces Downloaded, vector"
vector 855  BasicTopology.peer[3].bitTorrentApp.bitTorrentClient.contentManager_26  PiecesDownloaded:vector  ETV
attr source  ContentManager_PieceDownloaded
attr title  "Pieces Downloaded, vector"
vector 847  BasicTopology.peer[2].bitTorrentApp.bitTorrentClient.contentManager_26  PiecesDownloaded:vector  ETV
attr source  ContentManager_PieceDownloaded
attr title  "Pieces Downloaded, vector"
vector 984  BasicTopology.peer[19].bitTorrentApp.bitTorrentClient.contentManager_26  TotalBytesDownloaded:vector  ETV
attr source  ContentManager_TotalBytesDownloaded
attr title  "Total of Bytes Downloaded, vector"
attr unit  B
vector 1007  BasicTopology.peer[22].bitTorrentApp.bitTorrentClient.contentManager_26  PiecesDownloaded:vector  ETV
attr source  ContentManager_PieceDownloaded
attr title  "Pieces Downloaded, vector"
vector 887  BasicTopology.peer[7].bitTorrentApp.bitTorrentClient.contentManager_26  PiecesDownloaded:vector  ETV
attr source  ContentManager_PieceDownloaded
attr title  "Pieces Downloaded, vector"
vector 889  BasicTopology.peer[7].bitTorrentApp.bitTorrentClient.contentManager_26  TotalBytesUploaded:vector  ETV
attr source  ContentManager_TotalBytesUploaded
attr title  "Total of Bytes Uploaded, vector"
attr unit  B
vector 927  BasicTopology.peer[12].bitTorrentApp.bitTorrentClient.contentManager_26  PiecesDownloaded:vector  ETV
attr source  ContentManager_PieceDownloaded
attr title  "Pieces Downloaded, vector"
vector 929  BasicTopology.peer[12].bitTorrentApp.bitTorrentClient.contentManager_26  TotalBytesUploaded:vector  ETV
attr source  ContentManager_TotalBytesUploaded
attr title  "Total of Bytes Uploaded, vector"
attr unit  B
vector 920  BasicTopology.peer[11].bitTorrentApp.bitTorrentClient.contentManager_26  TotalBytesDownloaded:vector  ETV
attr source  ContentManager_TotalBytesDownloaded
attr title  "Total of Bytes Downloaded, vector"
attr unit  B
vector 879  BasicTopology.peer[6].bitTorrentApp.bitTorrentClient.contentManager_26  PiecesDownloaded:vector  ETV
attr source  ContentManager_PieceDownloaded
attr title  "Pieces Downloaded, vector"
vector 881  BasicTopology.peer[6].bitTorrentApp.bitTorrentClient.contentManager_26  TotalBytesUploaded:vector  ETV
attr source  ContentManager_TotalBytesUploaded
attr title  "Total of Bytes Uploaded, vector"
attr unit  B
vector 896  BasicTopology.peer[8].bitTorrentApp.bitTorrentClient.contentManager_26  TotalBytesDownloaded:vector  ETV
attr source  ContentManager_TotalBytesDownloaded
attr title  "Total of Bytes Downloaded, vector"
attr unit  B
vector 863  BasicTopology.peer[4].bitTorrentApp.bitTorrentClient.contentManager_26  PiecesDownloaded:vector  ETV
attr source  ContentManager_PieceDownloaded
attr title  "Pieces Downloaded, vector"
vector 895  BasicTopology.peer[8].bitTorrentApp.bitTorrentClient.contentManager_26  PiecesDownloaded:vector  ETV
attr source  ContentManager_PieceDownloaded
attr title  "Pieces Downloaded, vector"
vector 1023  BasicTopology.peer[24].bitTorrentApp.bitTorrentClient.contentManager_26  PiecesDownloaded:vector  ETV
attr source  ContentManager_PieceDownloaded
attr title  "Pieces Downloaded, vector"
vector 951  BasicTopology.peer[15].bitTorrentApp.bitTorrentClient.contentManager_26  PiecesDownloaded:vector  ETV
attr source  ContentManager_PieceDownloaded
attr title  "Pieces Downloaded, vector"
vector 903  BasicTopology.peer[9].bitTorrentApp.bitTorrentClient.contentManager_26  PiecesDownloaded:vector  ETV
attr source  ContentManager_PieceDownloaded
attr title  "Pieces Downloaded, vector"
vector 905  BasicTopology.peer[9].bitTorrentApp.bitTorrentClient.contentManager_26  TotalBytesUploaded:vector  ETV
attr source  ContentManager_TotalBytesUploaded
attr title  "Total of Bytes Uploaded, vector"
attr unit  B
vector 969  BasicTopology.peer[17].bitTorrentApp.bitTorrentClient.contentManager_26  TotalBytesUploaded:vector  ETV
attr source  ContentManager_TotalBytesUploaded
attr title  "Total of Bytes Uploaded, vector"
attr unit  B
vector 983  BasicTopology.peer[19].bitTorrentApp.bitTorrentClient.contentManager_26  PiecesDownloaded:vector  ETV
attr source  ContentManager_PieceDownloaded
attr title  "Pieces Downloaded, vector"
vector 959  BasicTopology.peer[16].bitTorrentApp.bitTorrentClient.contentManager_26  PiecesDownloaded:vector  ETV
attr source  ContentManager_PieceDownloaded
attr title  "Pieces Downloaded, vector"
vector 961  BasicTopology.peer[16].bitTorrentApp.bitTorrentClient.contentManager_26  TotalBytesUploaded:vector  ETV
attr source  ContentManager_TotalBytesUploaded
attr title  "Total of Bytes Uploaded, vector"
attr unit  B
vector 975  BasicTopology.peer[18].bitTorrentApp.bitTorrentClient.contentManager_26  PiecesDownloaded:vector  ETV
attr source  ContentManager_PieceDownloaded
attr title  "Pieces Downloaded, vector"
vector 1009  BasicTopology.peer[22].bitTorrentApp.bitTorrentClient.contentManager_26  TotalBytesUploaded:vector  ETV
attr source  ContentManager_TotalBytesUploaded
attr title  "Total of Bytes Uploaded, vector"
attr unit  B
vector 897  BasicTopology.peer[8].bitTorrentApp.bitTorrentClient.contentManager_26  TotalBytesUploaded:vector  ETV
attr source  ContentManager_TotalBytesUploaded
attr title  "Total of Bytes Uploaded, vector"
attr unit  B
vector 849  BasicTopology.peer[2].bitTorrentApp.bitTorrentClient.contentManager_26  TotalBytesUploaded:vector  ETV
attr source  ContentManager_TotalBytesUploaded
attr title  "Total of Bytes Uploaded, vector"
attr unit  B
vector 937  BasicTopology.peer[13].bitTorrentApp.bitTorrentClient.contentManager_26  TotalBytesUploaded:vector  ETV
attr source  ContentManager_TotalBytesUploaded
attr title  "Total of Bytes Uploaded, vector"
attr unit  B
vector 985  BasicTopology.peer[19].bitTorrentApp.bitTorrentClient.contentManager_26  TotalBytesUploaded:vector  ETV
attr source  ContentManager_TotalBytesUploaded
attr title  "Total of Bytes Uploaded, vector"
attr unit  B
vector 865  BasicTopology.peer[4].bitTorrentApp.bitTorrentClient.contentManager_26  TotalBytesUploaded:vector  ETV
attr source  ContentManager_TotalBytesUploaded
attr title  "Total of Bytes Uploaded, vector"
attr unit  B
vector 919  BasicTopology.peer[11].bitTorrentApp.bitTorrentClient.contentManager_26  PiecesDownloaded:vector  ETV
attr source  ContentManager_PieceDownloaded
attr title  "Pieces Downloaded, vector"
vector 857  BasicTopology.peer[3].bitTorrentApp.bitTorrentClient.contentManager_26  TotalBytesUploaded:vector  ETV
attr source  ContentManager_TotalBytesUploaded
attr title  "Total of Bytes Uploaded, vector"
attr unit  B
vector 1025  BasicTopology.peer[24].bitTorrentApp.bitTorrentClient.contentManager_26  TotalBytesUploaded:vector  ETV
attr source  ContentManager_TotalBytesUploaded
attr title  "Total of Bytes Uploaded, vector"
attr unit  B
vector 921  BasicTopology.peer[11].bitTorrentApp.bitTorrentClient.contentManager_26  TotalBytesUploaded:vector  ETV
attr source  ContentManager_TotalBytesUploaded
attr title  "Total of Bytes Uploaded, vector"
attr unit  B
vector 953  BasicTopology.peer[15].bitTorrentApp.bitTorrentClient.contentManager_26  TotalBytesUploaded:vector  ETV
attr source  ContentManager_TotalBytesUploaded
attr title  "Total of Bytes Uploaded, vector"
attr unit  B
3	103	36001	36001
3	32560145	36054.223055598558	36054.223055599
5	104	36001	36001
5	78920609	36143.407918448276	36143.407918448
7	105	36001	36001
7	64578726	36110.11796739111	36110.117967391
9	106	36001	36001
9	71929419	36126.029301783923	36126.029301784
11	107	36001	36001
11	81306277	36152.086506918427	36152.086506918
13	108	36001	36001
13	76835998	36137.331217641127	36137.331217641
15	109	36001	36001
15	78327289	36141.703489527542	36141.703489528
17	110	36001	36001
17	81703958	36155.365358342031	36155.365358342
19	111	36001	36001
19	81516743	36153.595510728982	36153.595510729
21	112	36001	36001
21	76695178	36136.956324160685	36136.956324161
23	113	36001	36001
23	81682840	36155.283281847868	36155.283281848
25	114	36001	36001
25	72577253	36127.681944559126	36127.681944559
27	115	36001	36001
27	82098050	36168.297614878469	36168.297614878
29	116	36001	36001
29	76063697	36135.215942756651	36135.215942757
31	117	36001	36001
31	77736235	36140.26621378566	36140.266213786
33	118	36001	36001
33	80248720	36146.697747823526	36146.697747824
35	119	36001	36001
35	79851714	36145.859137246325	36145.859137246
37	120	36001	36001
37	80897412	36149.975226527455	36149.975226527
39	121	36001	36001
39	82295975	36169.706436232902	36169.706436233
41	122	36001	36001
41	51884557	36084.583790976474	36084.583790976
43	123	36001	36001
43	72764755	36128.093465173828	36128.093465174
45	124	36001	36001
45	52973608	36086.636411015768	36086.636411016
47	125	36001	36001
47	49502943	36080.405397191314	36080.405397191
49	126	36001	36001
49	76960611	36137.916236969872	36137.91623697
833	89379	36001.060503740194	16384
833	103638	36001.071834374659	32768
833	103747	36001.072003398912	49152
833	104943	36001.073114931412	65536
833	105735	36001.07373243365	81920
833	106427	36001.074384741452	98304
833	108247	36001.076370251516	114688
833	108650	36001.076784372239	131072
833	131663	36001.09842647108	147456
833	131929	36001.098617626545	163840
833	360420	36001.685883112344	180224
833	366322	36001.697295005276	196608
833	367017	36001.698634113983	212992
833	370027	36001.70366731157	229376
833	370343	36001.704092007524	245760
833	370625	36001.704688007174	262144
833	382337	36001.729812276516	278528
833	384733	36001.734999513341	294912
833	384964	36001.735245391666	311296
833	386565	36001.73859186376	327680
833	466355	36002.532971599468	344064
833	526050	36002.593952520968	360448
833	532398	36002.604937785823	376832
833	546639	36002.641920256596	393216
833	559647	36003.135127184072	409600
833	590305	36003.195022136813	425984
833	630538	36003.277304036962	442368
833	640442	36003.656010287249	458752
833	648854	36003.683082378293	475136
833	659047	36003.717419247033	491520
833	672504	36003.747123570307	507904
833	708867	36003.824282726873	524288
833	748434	36003.905592537968	540672
833	882367	36004.086202365302	557056
833	912146	36004.12159716553	573440
833	921078	36004.134343270405	589824
833	932513	36004.147339295563	606208
833	937499	36004.152337908141	622592
833	954400	36004.172826134602	638976
833	955432	36004.174383436654	655360
833	955678	36004.174610243238	671744
833	968555	36004.196203013813	688128
833	969104	36004.197078971504	704512
833	1015588	36004.327006286673	720896
833	1053643	36004.410568916424	737280
833	1087777	36004.481842094547	753664
833	1227736	36004.912551366936	770048
833	1235175	36004.936644185099	786432
833	1250749	36004.987565637142	802816
833	1250975	36004.988249007533	819200
833	1259878	36005.011673245546	835584
833	1473780	36005.598746337088	851968
833	1649039	36006.046940504293	868352
833	1649042	36006.051252856937	884736
833	1649044	36006.051734924758	901120
833	1649047	36006.055417152545	917504
833	1649049	36006.056907536064	933888
833	1651838	36006.204394146558	950272
833	1659639	36006.22939830053	966656
833	1681124	36006.277745145362	983040
833	1734611	36006.428194176353	999424
833	1746435	36006.450645572062	1015808
833	1750828	36006.458626026733	1032192
833	1756080	36006.466864743749	1048576
833	1761995	36006.476245515528	1064960
833	1765055	36006.480687016445	1081344
833	1775938	36006.497913565856	1097728
833	1776501	36006.498891104305	1114112
833	1776890	36006.499587815806	1130496
833	1777392	36006.500542601563	1146880
833	1851927	36006.658817867715	1163264
833	1858360	36006.684840880009	1179648
833	1870973	36006.734784300659	1196032
833	1878678	36006.76263873078	1212416
833	1895820	36006.807036841931	1228800
833	1910658	36006.846253281961	1245184
833	1935890	36006.89548893216	1261568
833	2174716	36007.318580659744	1277952
833	2495236	36008.022268016044	1294336
833	2513662	36008.067709389439	1310720
833	2546800	36008.140677056243	1327104
833	2574662	36008.194819527212	1343488
833	2617631	36008.274714372096	1359872
833	3205716	36009.324040258956	1376256
833	3239570	36009.384091244016	1392640
833	3264617	36009.424483635576	1409024
833	3297675	36009.493772479291	1425408
833	3338564	36009.578955865153	1441792
833	3349683	36009.603891249979	1458176
833	3408213	36009.74916017623	1474560
833	3408229	36009.749161316954	1490944
833	3408547	36009.74996658729	1507328
833	3427979	36009.783217858048	1523712
833	3429255	36009.786377980767	1540096
833	3430840	36009.788696527923	1556480
833	3431046	36009.789032860849	1572864
833	3443374	36009.808410914599	1589248
833	3449450	36009.82056224341	1605632
833	3457953	36009.836899933975	1622016
833	3823955	36010.448209442457	1638400
833	3832769	36010.470889759336	1654784
833	3974990	36010.733043256893	1671168
833	4107159	36011.005101765425	1687552
833	4107869	36011.005734605069	1703936
833	4119145	36011.027881511054	1720320
833	4120325	36011.030291646613	1736704
833	4121537	36011.031913700932	1753088
833	4122249	36011.032819152606	1769472
833	4123697	36011.035038499633	1785856
833	4124474	36011.035897703043	1802240
833	4124717	36011.036116302476	1818624
833	4125031	36011.03643221396	1835008
833	4424156	36011.593072051932	1851392
833	4424595	36011.593735859412	1867776
833	4434867	36011.608360423484	1884160
833	4435525	36011.609610470388	1900544
833	4435795	36011.610584538574	1916928
833	4459537	36011.653729012161	1933312
833	4462469	36011.660913189453	1949696
833	4468820	36011.676537270811	1966080
833	4469519	36011.678537443036	1982464
833	4469521	36011.678556079503	1998848
833	5150769	36013.033226797048	2015232
833	5186950	36013.074475734161	2031616
833	5219866	36013.114815749463	2048000
833	5451451	36013.629359722167	2064384
833	5495754	36013.687578643143	2080768
833	5531417	36013.749548980166	2097152
833	5578839	36013.844298686367	2113536
833	5742051	36014.171360028991	2129920
833	5758801	36014.20289006352	2146304
833	5772991	36014.229142676272	2162688
833	5808048	36014.292134260834	2179072
833	5827436	36014.325596602508	2195456
833	5841595	36014.348430859259	2211840
833	5867541	36014.387787079633	2228224
833	5895728	36014.436672561603	2244608
833	5929285	36014.501023647219	2260992
833	5935778	36014.513505537019	2277376
833	5972097	36014.586579386682	2293760
833	6017900	36014.651854994018	2310144
833	6189745	36014.895423222181	2326528
833	6227792	36014.958501266051	2342912
833	6281841	36015.037908362236	2359296
833	6652093	36015.687308643217	2375680
833	6727278	36015.780960320157	2392064
833	6756213	36015.817561287875	2408448
833	6793674	36015.865183551223	2424832
833	6818182	36015.896920995219	2441216
833	6856080	36015.948231790541	2457600
833	6954408	36016.088235143992	2473984
833	6960078	36016.095891661704	2490368
833	7016078	36016.18574479179	2506752
833	7042396	36016.233983026175	2523136
833	7386413	36016.85400475948	2539520
833	7466638	36016.967959535211	2555904
833	7489371	36016.997550654803	2572288
833	7534994	36017.059075825324	2588672
833	7573125	36017.109755479314	2605056
833	7614185	36017.165369365155	2621440
833	7658682	36017.220152234544	2637824
833	7692486	36017.265579920444	2654208
833	7693585	36017.267355942887	2670592
833	7693794	36017.268211664106	2686976
833	7705766	36017.283372473952	2703360
833	7705768	36017.28339935824	2719744
833	7713565	36017.293034782063	2736128
833	7717157	36017.29693781375	2752512
833	7718759	36017.298873387879	2768896
833	8029960	36017.749490359434	2785280
833	8140911	36017.937974968125	2801664
833	8149152	36017.95358497129	2818048
833	8185500	36018.01657395067	2834432
833	8255372	36018.122850731046	2850816
833	8287217	36018.167117943551	2867200
833	8307877	36018.202032643705	2883584
833	8313131	36018.221577298923	2899968
833	8323707	36018.265617365012	2916352
833	8342376	36018.305986338938	2932736
833	8350888	36018.327113211754	2949120
833	8397836	36018.421329702841	2965504
833	8406337	36018.439751542055	2981888
833	8776968	36018.923753058637	2998272
833	9150936	36019.527027961663	3014656
833	9169814	36019.554288345849	3031040
833	9169993	36019.554581928961	3047424
833	9170419	36019.555247434615	3063808
833	9171258	36019.556472801622	3080192
833	9181537	36019.568265861251	3096576
833	9195754	36019.586400065961	3112960
833	9337146	36019.84883338498	3129344
833	9957823	36020.85502576827	3145728
833	9960889	36020.860228550771	3162112
833	9993645	36020.909666034047	3178496
833	9994242	36020.910273916228	3194880
833	9999859	36020.916779220297	3211264
833	10008026	36020.926939218846	3227648
833	10008453	36020.92736677244	3244032