version 2
run Test-5-20200424-14:07:11-6544
attr configname Test
attr datetime 20200424-14:07:11
attr experiment "\"Simulation Test\""
attr inifile BasicConfig.ini
attr iterationvars ""
attr iterationvars2 $repetition=5
attr measurement "\"Peers: $peers, Rate: $rate\""
attr network BasicTopology
attr processid 6544
attr repetition 5
attr replication #5
attr resultdir results
attr runnumber 5
attr seedset 5

vector 3  BasicTopology.peer[1].bitTorrentApp.bitTorrentClient  DownloadComplete_Test:vector  ETV
attr source  BitTorrentClient_DownloadComplete_Test
attr title  "Descargas completas (prueba), vector"
vector 5  BasicTopology.peer[2].bitTorrentApp.bitTorrentClient  DownloadComplete_Test:vector  ETV
attr source  BitTorrentClient_DownloadComplete_Test
attr title  "Descargas completas (prueba), vector"
vector 7  BasicTopology.peer[3].bitTorrentApp.bitTorrentClient  DownloadComplete_Test:vector  ETV
attr source  BitTorrentClient_DownloadComplete_Test
attr title  "Descargas completas (prueba), vector"
vector 9  BasicTopology.peer[4].bitTorrentApp.bitTorrentClient  DownloadComplete_Test:vector  ETV
attr source  BitTorrentClient_DownloadComplete_Test
attr title  "Descargas completas (prueba), vector"
vector 11  BasicTopology.peer[5].bitTorrentApp.bitTorrentClient  DownloadComplete_Test:vector  ETV
attr source  BitTorrentClient_DownloadComplete_Test
attr title  "Descargas completas (prueba), vector"
vector 13  BasicTopology.peer[6].bitTorrentApp.bitTorrentClient  DownloadComplete_Test:vector  ETV
attr source  BitTorrentClient_DownloadComplete_Test
attr title  "Descargas completas (prueba), vector"
vector 15  BasicTopology.peer[7].bitTorrentApp.bitTorrentClient  DownloadComplete_Test:vector  ETV
attr source  BitTorrentClient_DownloadComplete_Test
attr title  "Descargas completas (prueba), vector"
vector 17  BasicTopology.peer[8].bitTorrentApp.bitTorrentClient  DownloadComplete_Test:vector  ETV
attr source  BitTorrentClient_DownloadComplete_Test
attr title  "Descargas completas (prueba), vector"
vector 19  BasicTopology.peer[9].bitTorrentApp.bitTorrentClient  DownloadComplete_Test:vector  ETV
attr source  BitTorrentClient_DownloadComplete_Test
attr title  "Descargas completas (prueba), vector"
vector 21  BasicTopology.peer[10].bitTorrentApp.bitTorrentClient  DownloadComplete_Test:vector  ETV
attr source  BitTorrentClient_DownloadComplete_Test
attr title  "Descargas completas (prueba), vector"
vector 23  BasicTopology.peer[11].bitTorrentApp.bitTorrentClient  DownloadComplete_Test:vector  ETV
attr source  BitTorrentClient_DownloadComplete_Test
attr title  "Descargas completas (prueba), vector"
vector 25  BasicTopology.peer[12].bitTorrentApp.bitTorrentClient  DownloadComplete_Test:vector  ETV
attr source  BitTorrentClient_DownloadComplete_Test
attr title  "Descargas completas (prueba), vector"
vector 27  BasicTopology.peer[13].bitTorrentApp.bitTorrentClient  DownloadComplete_Test:vector  ETV
attr source  BitTorrentClient_DownloadComplete_Test
attr title  "Descargas completas (prueba), vector"
vector 29  BasicTopology.peer[14].bitTorrentApp.bitTorrentClient  DownloadComplete_Test:vector  ETV
attr source  BitTorrentClient_DownloadComplete_Test
attr title  "Descargas completas (prueba), vector"
vector 31  BasicTopology.peer[15].bitTorrentApp.bitTorrentClient  DownloadComplete_Test:vector  ETV
attr source  BitTorrentClient_DownloadComplete_Test
attr title  "Descargas completas (prueba), vector"
vector 33  BasicTopology.peer[16].bitTorrentApp.bitTorrentClient  DownloadComplete_Test:vector  ETV
attr source  BitTorrentClient_DownloadComplete_Test
attr title  "Descargas completas (prueba), vector"
vector 35  BasicTopology.peer[17].bitTorrentApp.bitTorrentClient  DownloadComplete_Test:vector  ETV
attr source  BitTorrentClient_DownloadComplete_Test
attr title  "Descargas completas (prueba), vector"
vector 37  BasicTopology.peer[18].bitTorrentApp.bitTorrentClient  DownloadComplete_Test:vector  ETV
attr source  BitTorrentClient_DownloadComplete_Test
attr title  "Descargas completas (prueba), vector"
vector 39  BasicTopology.peer[19].bitTorrentApp.bitTorrentClient  DownloadComplete_Test:vector  ETV
attr source  BitTorrentClient_DownloadComplete_Test
attr title  "Descargas completas (prueba), vector"
vector 41  BasicTopology.peer[20].bitTorrentApp.bitTorrentClient  DownloadComplete_Test:vector  ETV
attr source  BitTorrentClient_DownloadComplete_Test
attr title  "Descargas completas (prueba), vector"
vector 43  BasicTopology.peer[21].bitTorrentApp.bitTorrentClient  DownloadComplete_Test:vector  ETV
attr source  BitTorrentClient_DownloadComplete_Test
attr title  "Descargas completas (prueba), vector"
vector 45  BasicTopology.peer[22].bitTorrentApp.bitTorrentClient  DownloadComplete_Test:vector  ETV
attr source  BitTorrentClient_DownloadComplete_Test
attr title  "Descargas completas (prueba), vector"
vector 47  BasicTopology.peer[23].bitTorrentApp.bitTorrentClient  DownloadComplete_Test:vector  ETV
attr source  BitTorrentClient_DownloadComplete_Test
attr title  "Descargas completas (prueba), vector"
vector 49  BasicTopology.peer[24].bitTorrentApp.bitTorrentClient  DownloadComplete_Test:vector  ETV
attr source  BitTorrentClient_DownloadComplete_Test
attr title  "Descargas completas (prueba), vector"
vector 833  BasicTopology.peer[0].bitTorrentApp.bitTorrentClient.contentManager_26  TotalBytesUploaded:vector  ETV
attr source  ContentManager_TotalBytesUploaded
attr title  "Total of Bytes Uploaded, vector"
attr unit  B
vector 840  BasicTopology.peer[1].bitTorrentApp.bitTorrentClient.contentManager_26  TotalBytesDownloaded:vector  ETV
attr source  ContentManager_TotalBytesDownloaded
attr title  "Total of Bytes Downloaded, vector"
attr unit  B
vector 839  BasicTopology.peer[1].bitTorrentApp.bitTorrentClient.contentManager_26  PiecesDownloaded:vector  ETV
attr source  ContentManager_PieceDownloaded
attr title  "Pieces Downloaded, vector"
vector 841  BasicTopology.peer[1].bitTorrentApp.bitTorrentClient.contentManager_26  TotalBytesUploaded:vector  ETV
attr source  ContentManager_TotalBytesUploaded
attr title  "Total of Bytes Uploaded, vector"
attr unit  B
vector 912  BasicTopology.peer[10].bitTorrentApp.bitTorrentClient.contentManager_26  TotalBytesDownloaded:vector  ETV
attr source  ContentManager_TotalBytesDownloaded
attr title  "Total of Bytes Downloaded, vector"
attr unit  B
vector 911  BasicTopology.peer[10].bitTorrentApp.bitTorrentClient.contentManager_26  PiecesDownloaded:vector  ETV
attr source  ContentManager_PieceDownloaded
attr title  "Pieces Downloaded, vector"
vector 913  BasicTopology.peer[10].bitTorrentApp.bitTorrentClient.contentManager_26  TotalBytesUploaded:vector  ETV
attr source  ContentManager_TotalBytesUploaded
attr title  "Total of Bytes Uploaded, vector"
attr unit  B
vector 1008  BasicTopology.peer[22].bitTorrentApp.bitTorrentClient.contentManager_26  TotalBytesDownloaded:vector  ETV
attr source  ContentManager_TotalBytesDownloaded
attr title  "Total of Bytes Downloaded, vector"
attr unit  B
vector 1007  BasicTopology.peer[22].bitTorrentApp.bitTorrentClient.contentManager_26  PiecesDownloaded:vector  ETV
attr source  ContentManager_PieceDownloaded
attr title  "Pieces Downloaded, vector"
vector 1009  BasicTopology.peer[22].bitTorrentApp.bitTorrentClient.contentManager_26  TotalBytesUploaded:vector  ETV
attr source  ContentManager_TotalBytesUploaded
attr title  "Total of Bytes Uploaded, vector"
attr unit  B
vector 888  BasicTopology.peer[7].bitTorrentApp.bitTorrentClient.contentManager_26  TotalBytesDownloaded:vector  ETV
attr source  ContentManager_TotalBytesDownloaded
attr title  "Total of Bytes Downloaded, vector"
attr unit  B
vector 1016  BasicTopology.peer[23].bitTorrentApp.bitTorrentClient.contentManager_26  TotalBytesDownloaded:vector  ETV
attr source  ContentManager_TotalBytesDownloaded
attr title  "Total of Bytes Downloaded, vector"
attr unit  B
vector 1000  BasicTopology.peer[21].bitTorrentApp.bitTorrentClient.contentManager_26  TotalBytesDownloaded:vector  ETV
attr source  ContentManager_TotalBytesDownloaded
attr title  "Total of Bytes Downloaded, vector"
attr unit  B
vector 928  BasicTopology.peer[12].bitTorrentApp.bitTorrentClient.contentManager_26  TotalBytesDownloaded:vector  ETV
attr source  ContentManager_TotalBytesDownloaded
attr title  "Total of Bytes Downloaded, vector"
attr unit  B
vector 848  BasicTopology.peer[2].bitTorrentApp.bitTorrentClient.contentManager_26  TotalBytesDownloaded:vector  ETV
attr source  ContentManager_TotalBytesDownloaded
attr title  "Total of Bytes Downloaded, vector"
attr unit  B
vector 856  BasicTopology.peer[3].bitTorrentApp.bitTorrentClient.contentManager_26  TotalBytesDownloaded:vector  ETV
attr source  ContentManager_TotalBytesDownloaded
attr title  "Total of Bytes Downloaded, vector"
attr unit  B
vector 992  BasicTopology.peer[20].bitTorrentApp.bitTorrentClient.contentManager_26  TotalBytesDownloaded:vector  ETV
attr source  ContentManager_TotalBytesDownloaded
attr title  "Total of Bytes Downloaded, vector"
attr unit  B
vector 999  BasicTopology.peer[21].bitTorrentApp.bitTorrentClient.contentManager_26  PiecesDownloaded:vector  ETV
attr source  ContentManager_PieceDownloaded
attr title  "Pieces Downloaded, vector"
vector 1001  BasicTopology.peer[21].bitTorrentApp.bitTorrentClient.contentManager_26  TotalBytesUploaded:vector  ETV
attr source  ContentManager_TotalBytesUploaded
attr title  "Total of Bytes Uploaded, vector"
attr unit  B
vector 952  BasicTopology.peer[15].bitTorrentApp.bitTorrentClient.contentManager_26  TotalBytesDownloaded:vector  ETV
attr source  ContentManager_TotalBytesDownloaded
attr title  "Total of Bytes Downloaded, vector"
attr unit  B
vector 1024  BasicTopology.peer[24].bitTorrentApp.bitTorrentClient.contentManager_26  TotalBytesDownloaded:vector  ETV
attr source  ContentManager_TotalBytesDownloaded
attr title  "Total of Bytes Downloaded, vector"
attr unit  B
vector 1015  BasicTopology.peer[23].bitTorrentApp.bitTorrentClient.contentManager_26  PiecesDownloaded:vector  ETV
attr source  ContentManager_PieceDownloaded
attr title  "Pieces Downloaded, vector"
vector 1017  BasicTopology.peer[23].bitTorrentApp.bitTorrentClient.contentManager_26  TotalBytesUploaded:vector  ETV
attr source  ContentManager_TotalBytesUploaded
attr title  "Total of Bytes Uploaded, vector"
attr unit  B
vector 968  BasicTopology.peer[17].bitTorrentApp.bitTorrentClient.contentManager_26  TotalBytesDownloaded:vector  ETV
attr source  ContentManager_TotalBytesDownloaded
attr title  "Total of Bytes Downloaded, vector"
attr unit  B
vector 960  BasicTopology.peer[16].bitTorrentApp.bitTorrentClient.contentManager_26  TotalBytesDownloaded:vector  ETV
attr source  ContentManager_TotalBytesDownloaded
attr title  "Total of Bytes Downloaded, vector"
attr unit  B
vector 976  BasicTopology.peer[18].bitTorrentApp.bitTorrentClient.contentManager_26  TotalBytesDownloaded:vector  ETV
attr source  ContentManager_TotalBytesDownloaded
attr title  "Total of Bytes Downloaded, vector"
attr unit  B
vector 944  BasicTopology.peer[14].bitTorrentApp.bitTorrentClient.contentManager_26  TotalBytesDownloaded:vector  ETV
attr source  ContentManager_TotalBytesDownloaded
attr title  "Total of Bytes Downloaded, vector"
attr unit  B
vector 872  BasicTopology.peer[5].bitTorrentApp.bitTorrentClient.contentManager_26  TotalBytesDownloaded:vector  ETV
attr source  ContentManager_TotalBytesDownloaded
attr title  "Total of Bytes Downloaded, vector"
attr unit  B
vector 991  BasicTopology.peer[20].bitTorrentApp.bitTorrentClient.contentManager_26  PiecesDownloaded:vector  ETV
attr source  ContentManager_PieceDownloaded
attr title  "Pieces Downloaded, vector"
vector 896  BasicTopology.peer[8].bitTorrentApp.bitTorrentClient.contentManager_26  TotalBytesDownloaded:vector  ETV
attr source  ContentManager_TotalBytesDownloaded
attr title  "Total of Bytes Downloaded, vector"
attr unit  B
vector 984  BasicTopology.peer[19].bitTorrentApp.bitTorrentClient.contentManager_26  TotalBytesDownloaded:vector  ETV
attr source  ContentManager_TotalBytesDownloaded
attr title  "Total of Bytes Downloaded, vector"
attr unit  B
vector 847  BasicTopology.peer[2].bitTorrentApp.bitTorrentClient.contentManager_26  PiecesDownloaded:vector  ETV
attr source  ContentManager_PieceDownloaded
attr title  "Pieces Downloaded, vector"
vector 864  BasicTopology.peer[4].bitTorrentApp.bitTorrentClient.contentManager_26  TotalBytesDownloaded:vector  ETV
attr source  ContentManager_TotalBytesDownloaded
attr title  "Total of Bytes Downloaded, vector"
attr unit  B
vector 849  BasicTopology.peer[2].bitTorrentApp.bitTorrentClient.contentManager_26  TotalBytesUploaded:vector  ETV
attr source  ContentManager_TotalBytesUploaded
attr title  "Total of Bytes Uploaded, vector"
attr unit  B
vector 993  BasicTopology.peer[20].bitTorrentApp.bitTorrentClient.contentManager_26  TotalBytesUploaded:vector  ETV
attr source  ContentManager_TotalBytesUploaded
attr title  "Total of Bytes Uploaded, vector"
attr unit  B
vector 855  BasicTopology.peer[3].bitTorrentApp.bitTorrentClient.contentManager_26  PiecesDownloaded:vector  ETV
attr source  ContentManager_PieceDownloaded
attr title  "Pieces Downloaded, vector"
vector 857  BasicTopology.peer[3].bitTorrentApp.bitTorrentClient.contentManager_26  TotalBytesUploaded:vector  ETV
attr source  ContentManager_TotalBytesUploaded
attr title  "Total of Bytes Uploaded, vector"
attr unit  B
vector 895  BasicTopology.peer[8].bitTorrentApp.bitTorrentClient.contentManager_26  PiecesDownloaded:vector  ETV
attr source  ContentManager_PieceDownloaded
attr title  "Pieces Downloaded, vector"
vector 904  BasicTopology.peer[9].bitTorrentApp.bitTorrentClient.contentManager_26  TotalBytesDownloaded:vector  ETV
attr source  ContentManager_TotalBytesDownloaded
attr title  "Total of Bytes Downloaded, vector"
attr unit  B
vector 871  BasicTopology.peer[5].bitTorrentApp.bitTorrentClient.contentManager_26  PiecesDownloaded:vector  ETV
attr source  ContentManager_PieceDownloaded
attr title  "Pieces Downloaded, vector"
vector 936  BasicTopology.peer[13].bitTorrentApp.bitTorrentClient.contentManager_26  TotalBytesDownloaded:vector  ETV
attr source  ContentManager_TotalBytesDownloaded
attr title  "Total of Bytes Downloaded, vector"
attr unit  B
vector 873  BasicTopology.peer[5].bitTorrentApp.bitTorrentClient.contentManager_26  TotalBytesUploaded:vector  ETV
attr source  ContentManager_TotalBytesUploaded
attr title  "Total of Bytes Uploaded, vector"
attr unit  B
vector 920  BasicTopology.peer[11].bitTorrentApp.bitTorrentClient.contentManager_26  TotalBytesDownloaded:vector  ETV
attr source  ContentManager_TotalBytesDownloaded
attr title  "Total of Bytes Downloaded, vector"
attr unit  B
vector 880  BasicTopology.peer[6].bitTorrentApp.bitTorrentClient.contentManager_26  TotalBytesDownloaded:vector  ETV
attr source  ContentManager_TotalBytesDownloaded
attr title  "Total of Bytes Downloaded, vector"
attr unit  B
vector 919  BasicTopology.peer[11].bitTorrentApp.bitTorrentClient.contentManager_26  PiecesDownloaded:vector  ETV
attr source  ContentManager_PieceDownloaded
attr title  "Pieces Downloaded, vector"
vector 951  BasicTopology.peer[15].bitTorrentApp.bitTorrentClient.contentManager_26  PiecesDownloaded:vector  ETV
attr source  ContentManager_PieceDownloaded
attr title  "Pieces Downloaded, vector"
vector 897  BasicTopology.peer[8].bitTorrentApp.bitTorrentClient.contentManager_26  TotalBytesUploaded:vector  ETV
attr source  ContentManager_TotalBytesUploaded
attr title  "Total of Bytes Uploaded, vector"
attr unit  B
vector 967  BasicTopology.peer[17].bitTorrentApp.bitTorrentClient.contentManager_26  PiecesDownloaded:vector  ETV
attr source  ContentManager_PieceDownloaded
attr title  "Pieces Downloaded, vector"
vector 1023  BasicTopology.peer[24].bitTorrentApp.bitTorrentClient.contentManager_26  PiecesDownloaded:vector  ETV
attr source  ContentManager_PieceDownloaded
attr title  "Pieces Downloaded, vector"
vector 879  BasicTopology.peer[6].bitTorrentApp.bitTorrentClient.contentManager_26  PiecesDownloaded:vector  ETV
attr source  ContentManager_PieceDownloaded
attr title  "Pieces Downloaded, vector"
vector 959  BasicTopology.peer[16].bitTorrentApp.bitTorrentClient.contentManager_26  PiecesDownloaded:vector  ETV
attr source  ContentManager_PieceDownloaded
attr title  "Pieces Downloaded, vector"
vector 983  BasicTopology.peer[19].bitTorrentApp.bitTorrentClient.contentManager_26  PiecesDownloaded:vector  ETV
attr source  ContentManager_PieceDownloaded
attr title  "Pieces Downloaded, vector"
vector 887  BasicTopology.peer[7].bitTorrentApp.bitTorrentClient.contentManager_26  PiecesDownloaded:vector  ETV
attr source  ContentManager_PieceDownloaded
attr title  "Pieces Downloaded, vector"
vector 935  BasicTopology.peer[13].bitTorrentApp.bitTorrentClient.contentManager_26  PiecesDownloaded:vector  ETV
attr source  ContentManager_PieceDownloaded
attr title  "Pieces Downloaded, vector"
vector 943  BasicTopology.peer[14].bitTorrentApp.bitTorrentClient.contentManager_26  PiecesDownloaded:vector  ETV
attr source  ContentManager_PieceDownloaded
attr title  "Pieces Downloaded, vector"
vector 921  BasicTopology.peer[11].bitTorrentApp.bitTorrentClient.contentManager_26  TotalBytesUploaded:vector  ETV
attr source  ContentManager_TotalBytesUploaded
attr title  "Total of Bytes Uploaded, vector"
attr unit  B
vector 903  BasicTopology.peer[9].bitTorrentApp.bitTorrentClient.contentManager_26  PiecesDownloaded:vector  ETV
attr source  ContentManager_PieceDownloaded
attr title  "Pieces Downloaded, vector"
vector 927  BasicTopology.peer[12].bitTorrentApp.bitTorrentClient.contentManager_26  PiecesDownloaded:vector  ETV
attr source  ContentManager_PieceDownloaded
attr title  "Pieces Downloaded, vector"
vector 975  BasicTopology.peer[18].bitTorrentApp.bitTorrentClient.contentManager_26  PiecesDownloaded:vector  ETV
attr source  ContentManager_PieceDownloaded
attr title  "Pieces Downloaded, vector"
vector 953  BasicTopology.peer[15].bitTorrentApp.bitTorrentClient.contentManager_26  TotalBytesUploaded:vector  ETV
attr source  ContentManager_TotalBytesUploaded
attr title  "Total of Bytes Uploaded, vector"
attr unit  B
vector 863  BasicTopology.peer[4].bitTorrentApp.bitTorrentClient.contentManager_26  PiecesDownloaded:vector  ETV
attr source  ContentManager_PieceDownloaded
attr title  "Pieces Downloaded, vector"
vector 1025  BasicTopology.peer[24].bitTorrentApp.bitTorrentClient.contentManager_26  TotalBytesUploaded:vector  ETV
attr source  ContentManager_TotalBytesUploaded
attr title  "Total of Bytes Uploaded, vector"
attr unit  B
vector 977  BasicTopology.peer[18].bitTorrentApp.bitTorrentClient.contentManager_26  TotalBytesUploaded:vector  ETV
attr source  ContentManager_TotalBytesUploaded
attr title  "Total of Bytes Uploaded, vector"
attr unit  B
vector 865  BasicTopology.peer[4].bitTorrentApp.bitTorrentClient.contentManager_26  TotalBytesUploaded:vector  ETV
attr source  ContentManager_TotalBytesUploaded
attr title  "Total of Bytes Uploaded, vector"
attr unit  B
vector 889  BasicTopology.peer[7].bitTorrentApp.bitTorrentClient.contentManager_26  TotalBytesUploaded:vector  ETV
attr source  ContentManager_TotalBytesUploaded
attr title  "Total of Bytes Uploaded, vector"
attr unit  B
vector 969  BasicTopology.peer[17].bitTorrentApp.bitTorrentClient.contentManager_26  TotalBytesUploaded:vector  ETV
attr source  ContentManager_TotalBytesUploaded
attr title  "Total of Bytes Uploaded, vector"
attr unit  B
vector 881  BasicTopology.peer[6].bitTorrentApp.bitTorrentClient.contentManager_26  TotalBytesUploaded:vector  ETV
attr source  ContentManager_TotalBytesUploaded
attr title  "Total of Bytes Uploaded, vector"
attr unit  B
vector 929  BasicTopology.peer[12].bitTorrentApp.bitTorrentClient.contentManager_26  TotalBytesUploaded:vector  ETV
attr source  ContentManager_TotalBytesUploaded
attr title  "Total of Bytes Uploaded, vector"
attr unit  B
vector 945  BasicTopology.peer[14].bitTorrentApp.bitTorrentClient.contentManager_26  TotalBytesUploaded:vector  ETV
attr source  ContentManager_TotalBytesUploaded
attr title  "Total of Bytes Uploaded, vector"
attr unit  B
vector 937  BasicTopology.peer[13].bitTorrentApp.bitTorrentClient.contentManager_26  TotalBytesUploaded:vector  ETV
attr source  ContentManager_TotalBytesUploaded
attr title  "Total of Bytes Uploaded, vector"
attr unit  B
3	103	36001	36001
3	49929943	36083.686747374192	36083.686747374
5	104	36001	36001
5	60117496	36100.399568876052	36100.399568876
7	105	36001	36001
7	72539564	36124.547538788746	36124.547538789
9	106	36001	36001
9	83524174	36148.308721873223	36148.308721873
11	107	36001	36001
11	85309959	36152.937325045364	36152.937325045
13	108	36001	36001
13	80528085	36141.337024671973	36141.337024672
15	109	36001	36001
15	80333814	36140.991009533194	36140.991009533
17	110	36001	36001
17	87462757	36304.156202522664	36304.156202523
19	111	36001	36001
19	75902368	36131.650950999598	36131.650951
21	112	36001	36001
21	66983402	36113.647878948158	36113.647878948
23	113	36001	36001
23	80921296	36142.153709117545	36142.153709118
25	114	36001	36001
25	81176607	36142.79016224424	36142.790162244
27	115	36001	36001
27	83754825	36148.789164669812	36148.78916467
29	116	36001	36001
29	86154830	36156.648542675291	36156.648542675
31	117	36001	36001
31	86517252	36161.642530365359	36161.642530365
33	118	36001	36001
33	86675391	36164.723398350725	36164.723398351
35	119	36001	36001
35	85908611	36154.947196488408	36154.947196488
37	120	36001	36001
37	84492911	36150.458161698445	36150.458161698
39	121	36001	36001
39	82965082	36146.875489396502	36146.875489397
41	122	36001	36001
41	72230797	36123.76806239124	36123.768062391
43	123	36001	36001
43	83017310	36147.050821117543	36147.050821118
45	124	36001	36001
45	82183978	36144.990577310649	36144.990577311
47	125	36001	36001
47	81576547	36143.633353568639	36143.633353569
49	126	36001	36001
49	84582837	36150.643483439634	36150.64348344
833	136786	36001.106760464588	16384
833	148460	36001.121987607825	32768
833	148723	36001.122206847734	49152
833	161736	36001.132299348091	65536
833	162264	36001.13273112005	81920
833	193484	36001.16218704771	98304
833	211480	36001.208966206585	114688
833	211665	36001.229554425994	131072
833	211716	36001.254617750097	147456
833	211933	36001.255664337891	163840
833	218120	36001.275538524714	180224
833	218282	36001.276102561062	196608
833	218533	36001.276864208417	212992
833	226805	36001.303574626277	229376
833	228392	36001.308209257921	245760
833	228885	36001.309933102863	262144
833	232180	36001.320630776632	278528
833	232482	36001.321639556747	294912
833	232507	36001.321813704705	311296
833	233780	36001.326446498403	327680
833	233918	36001.326880344992	344064
833	234165	36001.327667823634	360448
833	237772	36001.340186761983	376832
833	243765	36001.359663388666	393216
833	257438	36001.405295310947	409600
833	258992	36001.410413528783	425984
833	274854	36001.462171659009	442368
833	282349	36001.485764681352	458752
833	543119	36002.485745460435	475136
833	544224	36002.489354018899	491520
833	549418	36002.501125492173	507904
833	568976	36002.514794341517	524288
833	569276	36002.515074019634	540672
833	570089	36002.515617095759	557056
833	592514	36002.533903293164	573440
833	627254	36002.574507493379	589824
833	631084	36002.588888535389	606208
833	631097	36002.598638664183	622592
833	670357	36002.767501350018	638976
833	680741	36002.786102383919	655360
833	699941	36002.831431686605	671744
833	717534	36002.874730042666	688128
833	722475	36002.887201179227	704512
833	737242	36002.927016045021	720896
833	747398	36002.954560253657	737280
833	758172	36002.978947318906	753664
833	857878	36003.338159525269	770048
833	859950	36003.342867824684	786432
833	860168	36003.34342209467	802816
833	865401	36003.356477179297	819200
833	868836	36003.367518678029	835584
833	871170	36003.374144428452	851968
833	871659	36003.375667541098	868352
833	872832	36003.379437320472	884736
833	872957	36003.379906699413	901120
833	873658	36003.382205763427	917504
833	874231	36003.383566999522	933888
833	882929	36003.408705298082	950272
833	895281	36003.450693728114	966656
833	901868	36003.469223678161	983040
833	919763	36003.526039963006	999424
833	928234	36003.552489579705	1015808
833	931414	36003.561325584286	1032192
833	943146	36003.596013038754	1048576
833	944486	36003.600319149492	1064960
833	969573	36003.671201680867	1081344
833	991801	36003.721854957561	1097728
833	1506290	36004.635077305484	1114112
833	1514469	36004.65964718785	1130496
833	1539300	36004.692376987773	1146880
833	1737365	36005.099941743247	1163264
833	1743745	36005.111037585585	1179648
833	1745966	36005.114471989409	1196032
833	1747336	36005.118423291507	1212416
833	1747632	36005.118985358781	1228800
833	1748056	36005.119673077401	1245184
833	1752673	36005.129902844183	1261568
833	1752754	36005.130014823638	1277952
833	1762572	36005.148834207353	1294336
833	1769229	36005.162474764995	1310720
833	1769436	36005.163138953898	1327104
833	1769976	36005.164763034925	1343488
833	1771222	36005.167069516279	1359872
833	1774742	36005.173290234435	1376256
833	1774927	36005.173499883163	1392640
833	1775136	36005.173755085219	1409024
833	1776025	36005.174845289624	1425408
833	1787090	36005.196784293585	1441792
833	1790121	36005.20274281666	1458176
833	1798089	36005.218900187713	1474560
833	2103868	36006.013371503831	1490944
833	2127267	36006.073270055556	1507328
833	2349586	36006.655229389541	1523712
833	2369065	36006.709920921078	1540096
833	2391213	36006.765914095595	1556480
833	2394007	36006.773307173146	1572864
833	2419358	36006.830521783048	1589248
833	2419489	36006.830929312353	1605632
833	2420363	36006.833902090014	1622016
833	2424941	36006.845492938434	1638400
833	2425583	36006.84635946293	1654784
833	2426043	36006.847119201911	1671168
833	2427749	36006.851837114143	1687552
833	2428256	36006.85331390636	1703936
833	2439769	36006.888775388274	1720320
833	2441365	36006.893997759344	1736704
833	2444264	36006.903945460134	1753088
833	2445935	36006.908470122278	1769472
833	2572028	36007.136200636067	1785856
833	2588515	36007.175296920786	1802240
833	2599062	36007.202891377332	1818624
833	2605603	36007.21748848101	1835008
833	2609745	36007.228889754344	1851392
833	2623807	36007.260241665317	1867776
833	2626692	36007.267582153654	1884160
833	2627780	36007.270668990878	1900544
833	2628187	36007.272059998772	1916928
833	2629127	36007.274776808033	1933312
833	2849406	36007.784838901348	1949696
833	2861501	36007.802945553668	1966080
833	2873109	36007.818662389441	1982464
833	2887898	36007.845568783424	1998848
833	2989736	36008.045269152114	2015232
833	3028306	36008.130867652938	2031616
833	3043655	36008.17232424846	2048000
833	3046797	36008.181059595115	2064384
833	3069282	36008.233449969392	2080768
833	3672393	36009.445282934096	2097152
833	3708988	36009.496933967786	2113536
833	3721246	36009.516301528584	2129920
833	3733663	36009.53357967508	2146304
833	3763915	36009.574455658138	2162688
833	3789393	36009.611565415627	2179072
833	4364112	36010.632522962968	2195456
833	4392872	36010.695642391427	2211840
833	4439831	36010.761883544398	2228224
833	4450155	36010.782402620517	2244608
833	4453470	36010.787012927655	2260992
833	4486551	36010.836542146237	2277376
833	4511268	36010.868120641101	2293760
833	4516374	36010.875847626618	2310144
833	4558726	36010.939133911663	2326528
833	4565522	36010.949424920927	2342912
833	4591379	36010.984766513491	2359296
833	4617603	36011.024821047855	2375680
833	4651406	36011.073315508992	2392064
833	4674834	36011.108000788088	2408448
833	4719131	36011.180480338496	2424832
833	4727851	36011.206405335403	2441216
833	4774713	36011.283211952302	2457600
833	5446536	36012.389220367762	2473984
833	5999899	36013.198202524903	2490368
833	6016031	36013.22911861411	2506752
833	6022069	36013.239557439646	2523136
833	6028329	36013.250214629168	2539520
833	6032659	36013.260783297982	2555904
833	6033019	36013.261436840227	2572288
833	6041251	36013.279363694063	2588672
833	6067443	36013.322057939094	2605056
833	6082077	36013.341994861383	2621440
833	6306566	36013.798781695075	2637824
833	6326881	36013.827135970191	2654208
833	6360619	36013.87739340175	2670592
833	6383755	36013.908118927289	2686976
833	6409030	36013.944158859961	2703360
833	6430682	36013.97270750282	2719744
833	7089065	36015.003910527757	2736128
833	7148715	36015.079856682026	2752512
833	7172485	36015.110701039336	2768896
833	7209476	36015.154417187017	2785280
833	7229516	36015.185279242811	2801664
833	7248180	36015.213373614418	2818048
833	7348319	36015.438462738164	2834432
833	7794937	36016.256067195861	2850816
833	7833432	36016.306110615608	2867200
833	7853547	36016.333057686415	2883584
833	7923865	36016.447940555019	2899968
833	7959159	36016.504976129873	2916352
833	8265409	36016.978326869658	2932736
833	8540395	36017.389857264242	2949120
833	8564897	36017.422890789022	2965504
833	8573807	36017.435647650133	2981888
833	8598764	36017.470848663371	2998272
833	8627339	36017.507579942891	3014656
833	8632197	36017.514207621913	3031040
833	8659464	36017.549512504039	3047424
833	8686991	36017.590729438746	3063808
833	8707844	36017.618580790562	3080192
833	8753046	36017.683919219762	3096576
833	9398458	36018.751631072347	3112960
833	9425259	36018.786125814708	3129344
833	9448304	36018.819174978121	3145728
833	9500456	36018.890997776999	3162112
833	9500607	36018.891247532059	3178496
833	9518716	36018.913989527152	3194880
833	9537769	36018.942457594175	3211264
833	9658086	36019.121636870096	3227648
833	9915671	36019.584950426463	3244032
833	10113548	36019.971390468428	3260416
833	10120588	36019.987446113564	3276800
833	10121507	36019.990215084419	3293184
833	10121925	36019.994817997865	3309568
833	10127588	36020.007003706311	3325952
833	10233841	36020.180540476797	3342336
833	10262465	36020.219268934041	3358720
833	10281555	36020.243750614919	3375104
833	10312064	36020.289268349632	3391488
833	10865864	36021.384539764531	3407872
833	11433876	36022.275411996369	3424256
833	11453496	36022.308088078075	3440640