file 428209 1587775464                                          
version 2
run Test-13-20200424-14:09:46-6636
attr configname Test
attr datetime 20200424-14:09:46
attr experiment "\"Simulation Test\""
attr inifile BasicConfig.ini
attr iterationvars ""
attr iterationvars2 $repetition=13
attr measurement "\"Peers: $peers, Rate: $rate\""
attr network BasicTopology
attr processid 6636
attr repetition 13
attr replication #13
attr resultdir results
attr runnumber 13
attr seedset 13

vector 3  BasicTopology.peer[1].bitTorrentApp.bitTorrentClient  DownloadComplete_Test:vector  ETV
attr source  BitTorrentClient_DownloadComplete_Test
attr title  "Descargas completas (prueba), vector"
vector 5  BasicTopology.peer[2].bitTorrentApp.bitTorrentClient  DownloadComplete_Test:vector  ETV
attr source  BitTorrentClient_DownloadComplete_Test
attr title  "Descargas completas (prueba), vector"
vector 7  BasicTopology.peer[3].bitTorrentApp.bitTorrentClient  DownloadComplete_Test:vector  ETV
attr source  BitTorrentClient_DownloadComplete_Test
attr title  "Descargas completas (prueba), vector"
vector 9  BasicTopology.peer[4].bitTorrentApp.bitTorrentClient  DownloadComplete_Test:vector  ETV
attr source  BitTorrentClient_DownloadComplete_Test
attr title  "Descargas completas (prueba), vector"
vector 11  BasicTopology.peer[5].bitTorrentApp.bitTorrentClient  DownloadComplete_Test:vector  ETV
attr source  BitTorrentClient_DownloadComplete_Test
attr title  "Descargas completas (prueba), vector"
vector 13  BasicTopology.peer[6].bitTorrentApp.bitTorrentClient  DownloadComplete_Test:vector  ETV
attr source  BitTorrentClient_DownloadComplete_Test
attr title  "Descargas completas (prueba), vector"
vector 15  BasicTopology.peer[7].bitTorrentApp.bitTorrentClient  DownloadComplete_Test:vector  ETV
attr source  BitTorrentClient_DownloadComplete_Test
attr title  "Descargas completas (prueba), vector"
vector 17  BasicTopology.peer[8].bitTorrentApp.bitTorrentClient  DownloadComplete_Test:vector  ETV
attr source  BitTorrentClient_DownloadComplete_Test
attr title  "Descargas completas (prueba), vector"
vector 19  BasicTopology.peer[9].bitTorrentApp.bitTorrentClient  DownloadComplete_Test:vector  ETV
attr source  BitTorrentClient_DownloadComplete_Test
attr title  "Descargas completas (prueba), vector"
vector 21  BasicTopology.peer[10].bitTorrentApp.bitTorrentClient  DownloadComplete_Test:vector  ETV
attr source  BitTorrentClient_DownloadComplete_Test
attr title  "Descargas completas (prueba), vector"
vector 23  BasicTopology.peer[11].bitTorrentApp.bitTorrentClient  DownloadComplete_Test:vector  ETV
attr source  BitTorrentClient_DownloadComplete_Test
attr title  "Descargas completas (prueba), vector"
vector 25  BasicTopology.peer[12].bitTorrentApp.bitTorrentClient  DownloadComplete_Test:vector  ETV
attr source  BitTorrentClient_DownloadComplete_Test
attr title  "Descargas completas (prueba), vector"
vector 27  BasicTopology.peer[13].bitTorrentApp.bitTorrentClient  DownloadComplete_Test:vector  ETV
attr source  BitTorrentClient_DownloadComplete_Test
attr title  "Descargas completas (prueba), vector"
vector 29  BasicTopology.peer[14].bitTorrentApp.bitTorrentClient  DownloadComplete_Test:vector  ETV
attr source  BitTorrentClient_DownloadComplete_Test
attr title  "Descargas completas (prueba), vector"
vector 31  BasicTopology.peer[15].bitTorrentApp.bitTorrentClient  DownloadComplete_Test:vector  ETV
attr source  BitTorrentClient_DownloadComplete_Test
attr title  "Descargas completas (prueba), vector"
vector 33  BasicTopology.peer[16].bitTorrentApp.bitTorrentClient  DownloadComplete_Test:vector  ETV
attr source  BitTorrentClient_DownloadComplete_Test
attr title  "Descargas completas (prueba), vector"
vector 35  BasicTopology.peer[17].bitTorrentApp.bitTorrentClient  DownloadComplete_Test:vector  ETV
attr source  BitTorrentClient_DownloadComplete_Test
attr title  "Descargas completas (prueba), vector"
vector 37  BasicTopology.peer[18].bitTorrentApp.bitTorrentClient  DownloadComplete_Test:vector  ETV
attr source  BitTorrentClient_DownloadComplete_Test
attr title  "Descargas completas (prueba), vector"
vector 39  BasicTopology.peer[19].bitTorrentApp.bitTorrentClient  DownloadComplete_Test:vector  ETV
attr source  BitTorrentClient_DownloadComplete_Test
attr title  "Descargas completas (prueba), vector"
vector 41  BasicTopology.peer[20].bitTorrentApp.bitTorrentClient  DownloadComplete_Test:vector  ETV
attr source  BitTorrentClient_DownloadComplete_Test
attr title  "Descargas completas (prueba), vector"
vector 43  BasicTopology.peer[21].bitTorrentApp.bitTorrentClient  DownloadComplete_Test:vector  ETV
attr source  BitTorrentClient_DownloadComplete_Test
attr title  "Descargas completas (prueba), vector"
vector 45  BasicTopology.peer[22].bitTorrentApp.bitTorrentClient  DownloadComplete_Test:vector  ETV
attr source  BitTorrentClient_DownloadComplete_Test
attr title  "Descargas completas (prueba), vector"
vector 47  BasicTopology.peer[23].bitTorrentApp.bitTorrentClient  DownloadComplete_Test:vector  ETV
attr source  BitTorrentClient_DownloadComplete_Test
attr title  "Descargas completas (prueba), vector"
vector 49  BasicTopology.peer[24].bitTorrentApp.bitTorrentClient  DownloadComplete_Test:vector  ETV
attr source  BitTorrentClient_DownloadComplete_Test
attr title  "Descargas completas (prueba), vector"
vector 833  BasicTopology.peer[0].bitTorrentApp.bitTorrentClient.contentManager_26  TotalBytesUploaded:vector  ETV
attr source  ContentManager_TotalBytesUploaded
attr title  "Total of Bytes Uploaded, vector"
attr unit  B
vector 912  BasicTopology.peer[10].bitTorrentApp.bitTorrentClient.contentManager_26  TotalBytesDownloaded:vector  ETV
attr source  ContentManager_TotalBytesDownloaded
attr title  "Total of Bytes Downloaded, vector"
attr unit  B
vector 840  BasicTopology.peer[1].bitTorrentApp.bitTorrentClient.contentManager_26  TotalBytesDownloaded:vector  ETV
attr source  ContentManager_TotalBytesDownloaded
attr title  "Total of Bytes Downloaded, vector"
attr unit  B
vector 911  BasicTopology.peer[10].bitTorrentApp.bitTorrentClient.contentManager_26  PiecesDownloaded:vector  ETV
attr source  ContentManager_PieceDownloaded
attr title  "Pieces Downloaded, vector"
vector 944  BasicTopology.peer[14].bitTorrentApp.bitTorrentClient.contentManager_26  TotalBytesDownloaded:vector  ETV
attr source  ContentManager_TotalBytesDownloaded
attr title  "Total of Bytes Downloaded, vector"
attr unit  B
vector 943  BasicTopology.peer[14].bitTorrentApp.bitTorrentClient.contentManager_26  PiecesDownloaded:vector  ETV
attr source  ContentManager_PieceDownloaded
attr title  "Pieces Downloaded, vector"
vector 945  BasicTopology.peer[14].bitTorrentApp.bitTorrentClient.contentManager_26  TotalBytesUploaded:vector  ETV
attr source  ContentManager_TotalBytesUploaded
attr title  "Total of Bytes Uploaded, vector"
attr unit  B
vector 928  BasicTopology.peer[12].bitTorrentApp.bitTorrentClient.contentManager_26  TotalBytesDownloaded:vector  ETV
attr source  ContentManager_TotalBytesDownloaded
attr title  "Total of Bytes Downloaded, vector"
attr unit  B
vector 913  BasicTopology.peer[10].bitTorrentApp.bitTorrentClient.contentManager_26  TotalBytesUploaded:vector  ETV
attr source  ContentManager_TotalBytesUploaded
attr title  "Total of Bytes Uploaded, vector"
attr unit  B
vector 839  BasicTopology.peer[1].bitTorrentApp.bitTorrentClient.contentManager_26  PiecesDownloaded:vector  ETV
attr source  ContentManager_PieceDownloaded
attr title  "Pieces Downloaded, vector"
vector 841  BasicTopology.peer[1].bitTorrentApp.bitTorrentClient.contentManager_26  TotalBytesUploaded:vector  ETV
attr source  ContentManager_TotalBytesUploaded
attr title  "Total of Bytes Uploaded, vector"
attr unit  B
vector 1008  BasicTopology.peer[22].bitTorrentApp.bitTorrentClient.contentManager_26  TotalBytesDownloaded:vector  ETV
attr source  ContentManager_TotalBytesDownloaded
attr title  "Total of Bytes Downloaded, vector"
attr unit  B
vector 848  BasicTopology.peer[2].bitTorrentApp.bitTorrentClient.contentManager_26  TotalBytesDownloaded:vector  ETV
attr source  ContentManager_TotalBytesDownloaded
attr title  "Total of Bytes Downloaded, vector"
attr unit  B
vector 936  BasicTopology.peer[13].bitTorrentApp.bitTorrentClient.contentManager_26  TotalBytesDownloaded:vector  ETV
attr source  ContentManager_TotalBytesDownloaded
attr title  "Total of Bytes Downloaded, vector"
attr unit  B
vector 968  BasicTopology.peer[17].bitTorrentApp.bitTorrentClient.contentManager_26  TotalBytesDownloaded:vector  ETV
attr source  ContentManager_TotalBytesDownloaded
attr title  "Total of Bytes Downloaded, vector"
attr unit  B
vector 992  BasicTopology.peer[20].bitTorrentApp.bitTorrentClient.contentManager_26  TotalBytesDownloaded:vector  ETV
attr source  ContentManager_TotalBytesDownloaded
attr title  "Total of Bytes Downloaded, vector"
attr unit  B
vector 856  BasicTopology.peer[3].bitTorrentApp.bitTorrentClient.contentManager_26  TotalBytesDownloaded:vector  ETV
attr source  ContentManager_TotalBytesDownloaded
attr title  "Total of Bytes Downloaded, vector"
attr unit  B
vector 855  BasicTopology.peer[3].bitTorrentApp.bitTorrentClient.contentManager_26  PiecesDownloaded:vector  ETV
attr source  ContentManager_PieceDownloaded
attr title  "Pieces Downloaded, vector"
vector 857  BasicTopology.peer[3].bitTorrentApp.bitTorrentClient.contentManager_26  TotalBytesUploaded:vector  ETV
attr source  ContentManager_TotalBytesUploaded
attr title  "Total of Bytes Uploaded, vector"
attr unit  B
vector 1007  BasicTopology.peer[22].bitTorrentApp.bitTorrentClient.contentManager_26  PiecesDownloaded:vector  ETV
attr source  ContentManager_PieceDownloaded
attr title  "Pieces Downloaded, vector"
vector 1009  BasicTopology.peer[22].bitTorrentApp.bitTorrentClient.contentManager_26  TotalBytesUploaded:vector  ETV
attr source  ContentManager_TotalBytesUploaded
attr title  "Total of Bytes Uploaded, vector"
attr unit  B
vector 960  BasicTopology.peer[16].bitTorrentApp.bitTorrentClient.contentManager_26  TotalBytesDownloaded:vector  ETV
attr source  ContentManager_TotalBytesDownloaded
attr title  "Total of Bytes Downloaded, vector"
attr unit  B
vector 1016  BasicTopology.peer[23].bitTorrentApp.bitTorrentClient.contentManager_26  TotalBytesDownloaded:vector  ETV
attr source  ContentManager_TotalBytesDownloaded
attr title  "Total of Bytes Downloaded, vector"
attr unit  B
vector 872  BasicTopology.peer[5].bitTorrentApp.bitTorrentClient.contentManager_26  TotalBytesDownloaded:vector  ETV
attr source  ContentManager_TotalBytesDownloaded
attr title  "Total of Bytes Downloaded, vector"
attr unit  B
vector 952  BasicTopology.peer[15].bitTorrentApp.bitTorrentClient.contentManager_26  TotalBytesDownloaded:vector  ETV
attr source  ContentManager_TotalBytesDownloaded
attr title  "Total of Bytes Downloaded, vector"
attr unit  B
vector 935  BasicTopology.peer[13].bitTorrentApp.bitTorrentClient.contentManager_26  PiecesDownloaded:vector  ETV
attr source  ContentManager_PieceDownloaded
attr title  "Pieces Downloaded, vector"
vector 937  BasicTopology.peer[13].bitTorrentApp.bitTorrentClient.contentManager_26  TotalBytesUploaded:vector  ETV
attr source  ContentManager_TotalBytesUploaded
attr title  "Total of Bytes Uploaded, vector"
attr unit  B
vector 864  BasicTopology.peer[4].bitTorrentApp.bitTorrentClient.contentManager_26  TotalBytesDownloaded:vector  ETV
attr source  ContentManager_TotalBytesDownloaded
attr title  "Total of Bytes Downloaded, vector"
attr unit  B
vector 904  BasicTopology.peer[9].bitTorrentApp.bitTorrentClient.contentManager_26  TotalBytesDownloaded:vector  ETV
attr source  ContentManager_TotalBytesDownloaded
attr title  "Total of Bytes Downloaded, vector"
attr unit  B
vector 880  BasicTopology.peer[6].bitTorrentApp.bitTorrentClient.contentManager_26  TotalBytesDownloaded:vector  ETV
attr source  ContentManager_TotalBytesDownloaded
attr title  "Total of Bytes Downloaded, vector"
attr unit  B
vector 927  BasicTopology.peer[12].bitTorrentApp.bitTorrentClient.contentManager_26  PiecesDownloaded:vector  ETV
attr source  ContentManager_PieceDownloaded
attr title  "Pieces Downloaded, vector"
vector 959  BasicTopology.peer[16].bitTorrentApp.bitTorrentClient.contentManager_26  PiecesDownloaded:vector  ETV
attr source  ContentManager_PieceDownloaded
attr title  "Pieces Downloaded, vector"
vector 961  BasicTopology.peer[16].bitTorrentApp.bitTorrentClient.contentManager_26  TotalBytesUploaded:vector  ETV
attr source  ContentManager_TotalBytesUploaded
attr title  "Total of Bytes Uploaded, vector"
attr unit  B
vector 888  BasicTopology.peer[7].bitTorrentApp.bitTorrentClient.contentManager_26  TotalBytesDownloaded:vector  ETV
attr source  ContentManager_TotalBytesDownloaded
attr title  "Total of Bytes Downloaded, vector"
attr unit  B
vector 929  BasicTopology.peer[12].bitTorrentApp.bitTorrentClient.contentManager_26  TotalBytesUploaded:vector  ETV
attr source  ContentManager_TotalBytesUploaded
attr title  "Total of Bytes Uploaded, vector"
attr unit  B
vector 991  BasicTopology.peer[20].bitTorrentApp.bitTorrentClient.contentManager_26  PiecesDownloaded:vector  ETV
attr source  ContentManager_PieceDownloaded
attr title  "Pieces Downloaded, vector"
vector 1000  BasicTopology.peer[21].bitTorrentApp.bitTorrentClient.contentManager_26  TotalBytesDownloaded:vector  ETV
attr source  ContentManager_TotalBytesDownloaded
attr title  "Total of Bytes Downloaded, vector"
attr unit  B
vector 847  BasicTopology.peer[2].bitTorrentApp.bitTorrentClient.contentManager_26  PiecesDownloaded:vector  ETV
attr source  ContentManager_PieceDownloaded
attr title  "Pieces Downloaded, vector"
vector 1024  BasicTopology.peer[24].bitTorrentApp.bitTorrentClient.contentManager_26  TotalBytesDownloaded:vector  ETV
attr source  ContentManager_TotalBytesDownloaded
attr title  "Total of Bytes Downloaded, vector"
attr unit  B
vector 879  BasicTopology.peer[6].bitTorrentApp.bitTorrentClient.contentManager_26  PiecesDownloaded:vector  ETV
attr source  ContentManager_PieceDownloaded
attr title  "Pieces Downloaded, vector"
vector 863  BasicTopology.peer[4].bitTorrentApp.bitTorrentClient.contentManager_26  PiecesDownloaded:vector  ETV
attr source  ContentManager_PieceDownloaded
attr title  "Pieces Downloaded, vector"
vector 976  BasicTopology.peer[18].bitTorrentApp.bitTorrentClient.contentManager_26  TotalBytesDownloaded:vector  ETV
attr source  ContentManager_TotalBytesDownloaded
attr title  "Total of Bytes Downloaded, vector"
attr unit  B
vector 967  BasicTopology.peer[17].bitTorrentApp.bitTorrentClient.contentManager_26  PiecesDownloaded:vector  ETV
attr source  ContentManager_PieceDownloaded
attr title  "Pieces Downloaded, vector"
vector 1023  BasicTopology.peer[24].bitTorrentApp.bitTorrentClient.contentManager_26  PiecesDownloaded:vector  ETV
attr source  ContentManager_PieceDownloaded
attr title  "Pieces Downloaded, vector"
vector 896  BasicTopology.peer[8].bitTorrentApp.bitTorrentClient.contentManager_26  TotalBytesDownloaded:vector  ETV
attr source  ContentManager_TotalBytesDownloaded
attr title  "Total of Bytes Downloaded, vector"
attr unit  B
vector 951  BasicTopology.peer[15].bitTorrentApp.bitTorrentClient.contentManager_26  PiecesDownloaded:vector  ETV
attr source  ContentManager_PieceDownloaded
attr title  "Pieces Downloaded, vector"
vector 984  BasicTopology.peer[19].bitTorrentApp.bitTorrentClient.contentManager_26  TotalBytesDownloaded:vector  ETV
attr source  ContentManager_TotalBytesDownloaded
attr title  "Total of Bytes Downloaded, vector"
attr unit  B
vector 849  BasicTopology.peer[2].bitTorrentApp.bitTorrentClient.contentManager_26  TotalBytesUploaded:vector  ETV
attr source  ContentManager_TotalBytesUploaded
attr title  "Total of Bytes Uploaded, vector"
attr unit  B
vector 903  BasicTopology.peer[9].bitTorrentApp.bitTorrentClient.contentManager_26  PiecesDownloaded:vector  ETV
attr source  ContentManager_PieceDownloaded
attr title  "Pieces Downloaded, vector"
vector 920  BasicTopology.peer[11].bitTorrentApp.bitTorrentClient.contentManager_26  TotalBytesDownloaded:vector  ETV
attr source  ContentManager_TotalBytesDownloaded
attr title  "Total of Bytes Downloaded, vector"
attr unit  B
vector 1015  BasicTopology.peer[23].bitTorrentApp.bitTorrentClient.contentManager_26  PiecesDownloaded:vector  ETV
attr source  ContentManager_PieceDownloaded
attr title  "Pieces Downloaded, vector"
vector 975  BasicTopology.peer[18].bitTorrentApp.bitTorrentClient.contentManager_26  PiecesDownloaded:vector  ETV
attr source  ContentManager_PieceDownloaded
attr title  "Pieces Downloaded, vector"
vector 993  BasicTopology.peer[20].bitTorrentApp.bitTorrentClient.contentManager_26  TotalBytesUploaded:vector  ETV
attr source  ContentManager_TotalBytesUploaded
attr title  "Total of Bytes Uploaded, vector"
attr unit  B
vector 895  BasicTopology.peer[8].bitTorrentApp.bitTorrentClient.contentManager_26  PiecesDownloaded:vector  ETV
attr source  ContentManager_PieceDownloaded
attr title  "Pieces Downloaded, vector"
vector 999  BasicTopology.peer[21].bitTorrentApp.bitTorrentClient.contentManager_26  PiecesDownloaded:vector  ETV
attr source  ContentManager_PieceDownloaded
attr title  "Pieces Downloaded, vector"
vector 865  BasicTopology.peer[4].bitTorrentApp.bitTorrentClient.contentManager_26  TotalBytesUploaded:vector  ETV
attr source  ContentManager_TotalBytesUploaded
attr title  "Total of Bytes Uploaded, vector"
attr unit  B
vector 919  BasicTopology.peer[11].bitTorrentApp.bitTorrentClient.contentManager_26  PiecesDownloaded:vector  ETV
attr source  ContentManager_PieceDownloaded
attr title  "Pieces Downloaded, vector"
vector 887  BasicTopology.peer[7].bitTorrentApp.bitTorrentClient.contentManager_26  PiecesDownloaded:vector  ETV
attr source  ContentManager_PieceDownloaded
attr title  "Pieces Downloaded, vector"
vector 1001  BasicTopology.peer[21].bitTorrentApp.bitTorrentClient.contentManager_26  TotalBytesUploaded:vector  ETV
attr source  ContentManager_TotalBytesUploaded
attr title  "Total of Bytes Uploaded, vector"
attr unit  B
vector 983  BasicTopology.peer[19].bitTorrentApp.bitTorrentClient.contentManager_26  PiecesDownloaded:vector  ETV
attr source  ContentManager_PieceDownloaded
attr title  "Pieces Downloaded, vector"
vector 871  BasicTopology.peer[5].bitTorrentApp.bitTorrentClient.contentManager_26  PiecesDownloaded:vector  ETV
attr source  ContentManager_PieceDownloaded
attr title  "Pieces Downloaded, vector"
vector 1017  BasicTopology.peer[23].bitTorrentApp.bitTorrentClient.contentManager_26  TotalBytesUploaded:vector  ETV
attr source  ContentManager_TotalBytesUploaded
attr title  "Total of Bytes Uploaded, vector"
attr unit  B
vector 921  BasicTopology.peer[11].bitTorrentApp.bitTorrentClient.contentManager_26  TotalBytesUploaded:vector  ETV
attr source  ContentManager_TotalBytesUploaded
attr title  "Total of Bytes Uploaded, vector"
attr unit  B
vector 977  BasicTopology.peer[18].bitTorrentApp.bitTorrentClient.contentManager_26  TotalBytesUploaded:vector  ETV
attr source  ContentManager_TotalBytesUploaded
attr title  "Total of Bytes Uploaded, vector"
attr unit  B
vector 873  BasicTopology.peer[5].bitTorrentApp.bitTorrentClient.contentManager_26  TotalBytesUploaded:vector  ETV
attr source  ContentManager_TotalBytesUploaded
attr title  "Total of Bytes Uploaded, vector"
attr unit  B
vector 889  BasicTopology.peer[7].bitTorrentApp.bitTorrentClient.contentManager_26  TotalBytesUploaded:vector  ETV
attr source  ContentManager_TotalBytesUploaded
attr title  "Total of Bytes Uploaded, vector"
attr unit  B
vector 905  BasicTopology.peer[9].bitTorrentApp.bitTorrentClient.contentManager_26  TotalBytesUploaded:vector  ETV
attr source  ContentManager_TotalBytesUploaded
attr title  "Total of Bytes Uploaded, vector"
attr unit  B
vector 881  BasicTopology.peer[6].bitTorrentApp.bitTorrentClient.contentManager_26  TotalBytesUploaded:vector  ETV
attr source  ContentManager_TotalBytesUploaded
attr title  "Total of Bytes Uploaded, vector"
attr unit  B
vector 897  BasicTopology.peer[8].bitTorrentApp.bitTorrentClient.contentManager_26  TotalBytesUploaded:vector  ETV
attr source  ContentManager_TotalBytesUploaded
attr title  "Total of Bytes Uploaded, vector"
attr unit  B
vector 969  BasicTopology.peer[17].bitTorrentApp.bitTorrentClient.contentManager_26  TotalBytesUploaded:vector  ETV
attr source  ContentManager_TotalBytesUploaded
attr title  "Total of Bytes Uploaded, vector"
attr unit  B
vector 985  BasicTopology.peer[19].bitTorrentApp.bitTorrentClient.contentManager_26  TotalBytesUploaded:vector  ETV
attr source  ContentManager_TotalBytesUploaded
attr title  "Total of Bytes Uploaded, vector"
attr unit  B
vector 1025  BasicTopology.peer[24].bitTorrentApp.bitTorrentClient.contentManager_26  TotalBytesUploaded:vector  ETV
attr source  ContentManager_TotalBytesUploaded
attr title  "Total of Bytes Uploaded, vector"
attr unit  B
3	20811 62 103 49028849 36001 36081.6106837131 2 36001 36081.610683713 72082.610683713 2597954630.531
5	20873 64 104 80893146 36001 36148.025257738021 2 36001 36148.025257738 72149.025257738 2602751731.0341
7	20937 64 105 70934190 36001 36125.330609691732 2 36001 36125.330609692 72126.330609692 2601111512.6595
9	21001 64 106 81886891 36001 36150.075971630636 2 36001 36150.075971631 72151.075971631 2602899993.7547
11	21065 66 107 84978658 36001 36169.920423347449 2 36001 36169.920423347 72170.920423347 2604335144.4313
13	21131 66 108 78760393 36001 36141.689789401701 2 36001 36141.689789402 72142.689789402 2602293741.8333
15	21197 66 109 84112180 36001 36156.974759560517 2 36001 36156.974759561 72157.974759561 2603398824.7635
17	21263 66 110 87206751 36001 36302.470942571327 2 36001 36302.470942571 72303.470942571 2613941397.5362
19	21329 66 111 81457387 36001 36149.208885214094 2 36001 36149.208885214 72150.208885214 2602837304.0268
21	21395 65 112 73515229 36001 36130.69172443501 2 36001 36130.691724435 72131.691724435 2601498885.4862
23	21460 66 113 76139788 36001 36136.006271514855 2 36001 36136.006271515 72137.006271515 2601882950.255
25	21526 66 114 79954019 36001 36145.351450194827 2 36001 36145.351450195 72146.351450195 2602558432.4581
27	21592 66 115 72495067 36001 36128.661694353232 2 36001 36128.661694353 72129.661694353 2601352196.825
29	21658 66 116 75744366 36001 36135.246362474658 2 36001 36135.246362475 72136.246362475 2601828030.6767
31	21724 66 117 75877642 36001 36135.483021430659 2 36001 36135.483021431 72136.483021431 2601845134.1921
33	21790 66 118 83332609 36001 36155.144116518635 2 36001 36155.144116519 72156.144116519 2603266447.0862
35	21856 66 119 84278470 36001 36157.587601762893 2 36001 36157.587601763 72158.587601763 2603443142.1792
37	21922 65 120 79853590 36001 36144.907907569705 2 36001 36144.90790757 72145.90790757 2602526368.6467
39	21987 66 121 85150117 36001 36170.858398602244 2 36001 36170.858398602 72171.858398602 2604402998.2917
41	22053 64 122 81179926 36001 36148.64059978984 2 36001 36148.64059979 72149.64059979 2602796218.2128
43	22117 66 123 48637113 36001 36081.023037677223 2 36001 36081.023037677 72082.023037677 2597912224.4454
45	22183 66 124 83121081 36001 36154.335129786321 2 36001 36154.335129786 72155.335129786 2603207949.6769
47	22249 66 125 58278466 36001 36099.012735837075 2 36001 36099.012735837 72100.012735837 2599210721.5021
49	22315 66 126 66127086 36001 36115.495906672308 2 36001 36115.495906672 72116.495906672 2600401045.5849
833	22381 19267 268900 74139117 36001.566127722076 36132.003132788836 493 16384 8077312 1995096064 1.0754238137238e+16
839	41648 812 1020094 49028849 36004.302217053527 36081.6106837131 24 0 23 276 4324
840	42460 7474 355812 49028849 36001.763574282106 36081.6106837131 192 16384 3145728 303562752 6.3827508985856e+14
841	49934 17813 1057826 74363526 36004.436623523804 36132.425814327639 453 16384 7421952 1684783104 8.345454047658e+15
847	67747 824 3667292 80893146 36009.622175050014 36148.025257738021 24 0 23 276 4324
848	68571 7910 1425589 80893146 36005.274461785025 36148.025257738021 201 16384 3293184 332611584 7.3205060049306e+14
849	76481 15615 5944559 78235353 36013.398544556565 36140.635240956892 395 16384 6471680 1281392640 5.5355068592947e+15
855	92096 825 1773248 70934190 36006.178132786985 36125.330609691732 24 0 23 276 4324
856	92921 7953 1664891 70934190 36005.847017032002 36125.330609691732 202 16384 3309568 335921152 7.4300384083968e+14
857	100874 10038 1810635 58557833 36006.244329938405 36099.639762321133 256 16384 4194304 538968064 1.5100074220585e+15
863	110912 824 4716736 81886891 36011.348782030434 36150.075971630636 24 0 23 276 4324
864	111736 7556 2499742 81886891 36007.539837668759 36150.075971630636 192 16384 3145728 303562752 6.3827508985856e+14
865	119292 19472 8618869 54271149 36017.986859687103 36090.665552231695 490 16384 8028160 1970913280 1.0559301919703e+16
871	138764 829 14451271 84978658 36027.463744851513 36169.920423347449 24 0 23 276 4324
872	139593 8233 2120638 84978658 36006.778037654199 36169.920423347449 208 16384 3407872 356122624 8.1102511695462e+14
873	147826 6274 21425549 66261697 36038.644072243114 36115.759680287291 159 16384 2605056 208404480 3.6307506036736e+14
879	154100 827 4562635 78760393 36011.020669173527 36141.689789401701 24 0 23 276 4324
880	154927 7885 2580181 78760393 36007.654320945058 36141.689789401701 200 16384 3276800 329318400 7.212055396352e+14
881	162812 5903 25337369 62263787 36044.451637358281 36107.173206188745 150 16384 2457600 185548800 3.050164977664e+14
887	168715 829 10392566 84112180 36021.123494994307 36156.974759560517 24 0 23 276 4324
888	169544 7831 2852638 84112180 36008.146265711865 36156.974759560517 198 16384 3244032 322781184 6.9983780890214e+14
889	177375 1316 22411046 80661762 36040.186205638282 36147.439461342693 34 16384 557056 9748480 3673539215360
895	178691 828 7036067 87206751 36015.334130987245 36302.470942571327 24 0 23 276 4324
896	179519 7580 5288321 87206751 36012.415890385216 36302.470942571327 192 16384 3145728 303562752 6.3827508985856e+14
897	187099 1242 25413233 26512097 36044.560704734957 36046.151955948315 32 16384 524288 8650752 3070901616640
903	188341 825 5977769 81457387 36013.438981070025 36149.208885214094 24 0 23 276 4324
904	189166 7959 2565900 83971561 36007.631788862516 36156.680842138781 202 16384 3309568 335921152 7.4300384083968e+14
905	197125 2488 22627025 71334338 36040.464658767106 36126.264480882999 64 16384 1048576 34078720 24008867184640
911	199613 805 554700 73515229 36002.71155159791 36130.69172443501 24 0 23 276 4324
912	200418 7446 280932 73515229 36001.578379037869 36130.69172443501 192 16384 3145728 303562752 6.3827508985856e+14
913	207864 18850 872824 84750446 36004.065794713715 36169.323911697772 479 16384 7847936 1883504640 9.8647023602893e+15
919	226714 822 9149638 76139788 36018.939298876996 36136.006271514855 24 0 23 276 4324
920	227536 7898 6535612 76139788 36014.348439072728 36136.006271514855 200 16384 3276800 329318400 7.212055396352e+14
921	235434 4710 16631631 76229052 36030.900328310333 36136.17984598523 120 16384 1966080 118947840 1.5655692664832e+14
927	240144 823 2610235 79954019 36007.698551385497 36145.351450194827 24 0 23 276 4324
928	240967 7797 776084 79954019 36003.688654940718 36145.351450194827 198 16384 3244032 322781184 6.9983780890214e+14
929	248764 5338 2853537 66837447 36008.147727887929 36116.964531010514 136 16384 2228224 152633344 2.2756776843674e+14
935	254102 825 2432039 72495067 36007.428013990558 36128.661694353232 24 0 23 276 4324
936	254927 8915 1465491 73083121 36005.353265338973 36129.831814231134 226 16384 3702784 420265984 1.0397313201603e+15
937	263842 5587 2470963 74378370 36007.486627893981 36132.455553054688 142 16384 2326528 166346752 2.5891539255296e+14
943	269429 824 737602 75744366 36003.594426610209 36135.246362474658 24 0 23 276 4324
944	270253 8579 577295 75744366 36003.191642437964 36135.246362474658 217 16384 3555328 387530752 9.2064905691136e+14
945	278832 3309 756684 58498397 36003.64052589844 36099.478177857264 88 16384 1441792 64159744 62020401496064
951	282141 827 5530320 75877642 36012.760574157451 36135.483021430659 24 0 23 276 4324
952	282968 8013 2397890 75877642 36007.333275234143 36135.483021430659 203 16384 3325952 339247104 7.5406579754598e+14
959	290981 824 2731425 83332609 36007.898546852908 36155.144116518635 24 0 23 276 4324
960	291805 7993 2006894 83332609 36006.559588286195 36155.144116518635 203 16384 3325952 339247104 7.5406579754598e+14
961	299798 4644 2748254 37401154 36007.934218456784 36062.695048076567 119 16384 1949696 116981760 1.5269145608192e+14
967	304442 824 5083821 84278470 36012.077936753813 36157.587601762893 24 0 23 276 4324
968	305266 8571 1541072 84278470 36005.487664303152 36157.587601762893 217 16384 3555328 387530752 9.2064905691136e+14
969	313837 732 34083374 78718200 36057.695108770968 36141.592500339843 19 16384 311296 3112960 663035576320
975	314569 826 6911129 79853590 36015.125448257134 36144.907907569705 24 0 23 276 4324
976	315395 8054 4757926 84234687 36011.426391713761 36157.224419910449 204 16384 3342336 342589440 7.6523700748288e+14
977	323449 2648 19516057 87127457 36035.498870794927 36302.214217290382 68 16384 1114112 38436864 28758564143104
983	326097 827 12790171 85150117 36024.956319615349 36170.858398602244 24 0 23 276 4324
984	326924 7587 5567345 85150117 36012.815312673937 36170.858398602244 192 16384 3145728 303562752 6.3827508985856e+14
985	334511 1081 36265015 84716964 36060.979725366075 36169.257767812313 28 16384 458752 6651904 2070711107584
991	335592 822 2885113 81179926 36008.211793547869 36148.64059978984 24 0 23 276 4324
992	336414 8277 1642250 81179926 36005.776861830971 36148.64059978984 210 16384 3440640 362987520 8.3458864971776e+14
993	344691 10122 6967889 83410705 36015.21956909571 36155.610898369666 256 16384 4194304 538968064 1.5100074220585e+15
999	354813 828 7139627 48637113 36015.535145796681 36081.023037677223 24 0 23 276 4324