version 2
run Test-14-20200424-14:10:00-6646
attr configname Test
attr datetime 20200424-14:10:00
attr experiment "\"Simulation Test\""
attr inifile BasicConfig.ini
attr iterationvars ""
attr iterationvars2 $repetition=14
attr measurement "\"Peers: $peers, Rate: $rate\""
attr network BasicTopology
attr processid 6646
attr repetition 14
attr replication #14
attr resultdir results
attr runnumber 14
attr seedset 14

vector 3  BasicTopology.peer[1].bitTorrentApp.bitTorrentClient  DownloadComplete_Test:vector  ETV
attr source  BitTorrentClient_DownloadComplete_Test
attr title  "Descargas completas (prueba), vector"
vector 5  BasicTopology.peer[2].bitTorrentApp.bitTorrentClient  DownloadComplete_Test:vector  ETV
attr source  BitTorrentClient_DownloadComplete_Test
attr title  "Descargas completas (prueba), vector"
vector 7  BasicTopology.peer[3].bitTorrentApp.bitTorrentClient  DownloadComplete_Test:vector  ETV
attr source  BitTorrentClient_DownloadComplete_Test
attr title  "Descargas completas (prueba), vector"
vector 9  BasicTopology.peer[4].bitTorrentApp.bitTorrentClient  DownloadComplete_Test:vector  ETV
attr source  BitTorrentClient_DownloadComplete_Test
attr title  "Descargas completas (prueba), vector"
vector 11  BasicTopology.peer[5].bitTorrentApp.bitTorrentClient  DownloadComplete_Test:vector  ETV
attr source  BitTorrentClient_DownloadComplete_Test
attr title  "Descargas completas (prueba), vector"
vector 13  BasicTopology.peer[6].bitTorrentApp.bitTorrentClient  DownloadComplete_Test:vector  ETV
attr source  BitTorrentClient_DownloadComplete_Test
attr title  "Descargas completas (prueba), vector"
vector 15  BasicTopology.peer[7].bitTorrentApp.bitTorrentClient  DownloadComplete_Test:vector  ETV
attr source  BitTorrentClient_DownloadComplete_Test
attr title  "Descargas completas (prueba), vector"
vector 17  BasicTopology.peer[8].bitTorrentApp.bitTorrentClient  DownloadComplete_Test:vector  ETV
attr source  BitTorrentClient_DownloadComplete_Test
attr title  "Descargas completas (prueba), vector"
vector 19  BasicTopology.peer[9].bitTorrentApp.bitTorrentClient  DownloadComplete_Test:vector  ETV
attr source  BitTorrentClient_DownloadComplete_Test
attr title  "Descargas completas (prueba), vector"
vector 21  BasicTopology.peer[10].bitTorrentApp.bitTorrentClient  DownloadComplete_Test:vector  ETV
attr source  BitTorrentClient_DownloadComplete_Test
attr title  "Descargas completas (prueba), vector"
vector 23  BasicTopology.peer[11].bitTorrentApp.bitTorrentClient  DownloadComplete_Test:vector  ETV
attr source  BitTorrentClient_DownloadComplete_Test
attr title  "Descargas completas (prueba), vector"
vector 25  BasicTopology.peer[12].bitTorrentApp.bitTorrentClient  DownloadComplete_Test:vector  ETV
attr source  BitTorrentClient_DownloadComplete_Test
attr title  "Descargas completas (prueba), vector"
vector 27  BasicTopology.peer[13].bitTorrentApp.bitTorrentClient  DownloadComplete_Test:vector  ETV
attr source  BitTorrentClient_DownloadComplete_Test
attr title  "Descargas completas (prueba), vector"
vector 29  BasicTopology.peer[14].bitTorrentApp.bitTorrentClient  DownloadComplete_Test:vector  ETV
attr source  BitTorrentClient_DownloadComplete_Test
attr title  "Descargas completas (prueba), vector"
vector 31  BasicTopology.peer[15].bitTorrentApp.bitTorrentClient  DownloadComplete_Test:vector  ETV
attr source  BitTorrentClient_DownloadComplete_Test
attr title  "Descargas completas (prueba), vector"
vector 33  BasicTopology.peer[16].bitTorrentApp.bitTorrentClient  DownloadComplete_Test:vector  ETV
attr source  BitTorrentClient_DownloadComplete_Test
attr title  "Descargas completas (prueba), vector"
vector 35  BasicTopology.peer[17].bitTorrentApp.bitTorrentClient  DownloadComplete_Test:vector  ETV
attr source  BitTorrentClient_DownloadComplete_Test
attr title  "Descargas completas (prueba), vector"
vector 37  BasicTopology.peer[18].bitTorrentApp.bitTorrentClient  DownloadComplete_Test:vector  ETV
attr source  BitTorrentClient_DownloadComplete_Test
attr title  "Descargas completas (prueba), vector"
vector 39  BasicTopology.peer[19].bitTorrentApp.bitTorrentClient  DownloadComplete_Test:vector  ETV
attr source  BitTorrentClient_DownloadComplete_Test
attr title  "Descargas completas (prueba), vector"
vector 41  BasicTopology.peer[20].bitTorrentApp.bitTorrentClient  DownloadComplete_Test:vector  ETV
attr source  BitTorrentClient_DownloadComplete_Test
attr title  "Descargas completas (prueba), vector"
vector 43  BasicTopology.peer[21].bitTorrentApp.bitTorrentClient  DownloadComplete_Test:vector  ETV
attr source  BitTorrentClient_DownloadComplete_Test
attr title  "Descargas completas (prueba), vector"
vector 45  BasicTopology.peer[22].bitTorrentApp.bitTorrentClient  DownloadComplete_Test:vector  ETV
attr source  BitTorrentClient_DownloadComplete_Test
attr title  "Descargas completas (prueba), vector"
vector 47  BasicTopology.peer[23].bitTorrentApp.bitTorrentClient  DownloadComplete_Test:vector  ETV
attr source  BitTorrentClient_DownloadComplete_Test
attr title  "Descargas completas (prueba), vector"
vector 49  BasicTopology.peer[24].bitTorrentApp.bitTorrentClient  DownloadComplete_Test:vector  ETV
attr source  BitTorrentClient_DownloadComplete_Test
attr title  "Descargas completas (prueba), vector"
vector 833  BasicTopology.peer[0].bitTorrentApp.bitTorrentClient.contentManager_26  TotalBytesUploaded:vector  ETV
attr source  ContentManager_TotalBytesUploaded
attr title  "Total of Bytes Uploaded, vector"
attr unit  B
vector 840  BasicTopology.peer[1].bitTorrentApp.bitTorrentClient.contentManager_26  TotalBytesDownloaded:vector  ETV
attr source  ContentManager_TotalBytesDownloaded
attr title  "Total of Bytes Downloaded, vector"
attr unit  B
vector 1000  BasicTopology.peer[21].bitTorrentApp.bitTorrentClient.contentManager_26  TotalBytesDownloaded:vector  ETV
attr source  ContentManager_TotalBytesDownloaded
attr title  "Total of Bytes Downloaded, vector"
attr unit  B
vector 999  BasicTopology.peer[21].bitTorrentApp.bitTorrentClient.contentManager_26  PiecesDownloaded:vector  ETV
attr source  ContentManager_PieceDownloaded
attr title  "Pieces Downloaded, vector"
vector 1001  BasicTopology.peer[21].bitTorrentApp.bitTorrentClient.contentManager_26  TotalBytesUploaded:vector  ETV
attr source  ContentManager_TotalBytesUploaded
attr title  "Total of Bytes Uploaded, vector"
attr unit  B
vector 904  BasicTopology.peer[9].bitTorrentApp.bitTorrentClient.contentManager_26  TotalBytesDownloaded:vector  ETV
attr source  ContentManager_TotalBytesDownloaded
attr title  "Total of Bytes Downloaded, vector"
attr unit  B
vector 839  BasicTopology.peer[1].bitTorrentApp.bitTorrentClient.contentManager_26  PiecesDownloaded:vector  ETV
attr source  ContentManager_PieceDownloaded
attr title  "Pieces Downloaded, vector"
vector 841  BasicTopology.peer[1].bitTorrentApp.bitTorrentClient.contentManager_26  TotalBytesUploaded:vector  ETV
attr source  ContentManager_TotalBytesUploaded
attr title  "Total of Bytes Uploaded, vector"
attr unit  B
vector 903  BasicTopology.peer[9].bitTorrentApp.bitTorrentClient.contentManager_26  PiecesDownloaded:vector  ETV
attr source  ContentManager_PieceDownloaded
attr title  "Pieces Downloaded, vector"
vector 905  BasicTopology.peer[9].bitTorrentApp.bitTorrentClient.contentManager_26  TotalBytesUploaded:vector  ETV
attr source  ContentManager_TotalBytesUploaded
attr title  "Total of Bytes Uploaded, vector"
attr unit  B
vector 976  BasicTopology.peer[18].bitTorrentApp.bitTorrentClient.contentManager_26  TotalBytesDownloaded:vector  ETV
attr source  ContentManager_TotalBytesDownloaded
attr title  "Total of Bytes Downloaded, vector"
attr unit  B
vector 912  BasicTopology.peer[10].bitTorrentApp.bitTorrentClient.contentManager_26  TotalBytesDownloaded:vector  ETV
attr source  ContentManager_TotalBytesDownloaded
attr title  "Total of Bytes Downloaded, vector"
attr unit  B
vector 968  BasicTopology.peer[17].bitTorrentApp.bitTorrentClient.contentManager_26  TotalBytesDownloaded:vector  ETV
attr source  ContentManager_TotalBytesDownloaded
attr title  "Total of Bytes Downloaded, vector"
attr unit  B
vector 928  BasicTopology.peer[12].bitTorrentApp.bitTorrentClient.contentManager_26  TotalBytesDownloaded:vector  ETV
attr source  ContentManager_TotalBytesDownloaded
attr title  "Total of Bytes Downloaded, vector"
attr unit  B
vector 936  BasicTopology.peer[13].bitTorrentApp.bitTorrentClient.contentManager_26  TotalBytesDownloaded:vector  ETV
attr source  ContentManager_TotalBytesDownloaded
attr title  "Total of Bytes Downloaded, vector"
attr unit  B
vector 992  BasicTopology.peer[20].bitTorrentApp.bitTorrentClient.contentManager_26  TotalBytesDownloaded:vector  ETV
attr source  ContentManager_TotalBytesDownloaded
attr title  "Total of Bytes Downloaded, vector"
attr unit  B
vector 856  BasicTopology.peer[3].bitTorrentApp.bitTorrentClient.contentManager_26  TotalBytesDownloaded:vector  ETV
attr source  ContentManager_TotalBytesDownloaded
attr title  "Total of Bytes Downloaded, vector"
attr unit  B
vector 864  BasicTopology.peer[4].bitTorrentApp.bitTorrentClient.contentManager_26  TotalBytesDownloaded:vector  ETV
attr source  ContentManager_TotalBytesDownloaded
attr title  "Total of Bytes Downloaded, vector"
attr unit  B
vector 984  BasicTopology.peer[19].bitTorrentApp.bitTorrentClient.contentManager_26  TotalBytesDownloaded:vector  ETV
attr source  ContentManager_TotalBytesDownloaded
attr title  "Total of Bytes Downloaded, vector"
attr unit  B
vector 952  BasicTopology.peer[15].bitTorrentApp.bitTorrentClient.contentManager_26  TotalBytesDownloaded:vector  ETV
attr source  ContentManager_TotalBytesDownloaded
attr title  "Total of Bytes Downloaded, vector"
attr unit  B
vector 944  BasicTopology.peer[14].bitTorrentApp.bitTorrentClient.contentManager_26  TotalBytesDownloaded:vector  ETV
attr source  ContentManager_TotalBytesDownloaded
attr title  "Total of Bytes Downloaded, vector"
attr unit  B
vector 960  BasicTopology.peer[16].bitTorrentApp.bitTorrentClient.contentManager_26  TotalBytesDownloaded:vector  ETV
attr source  ContentManager_TotalBytesDownloaded
attr title  "Total of Bytes Downloaded, vector"
attr unit  B
vector 991  BasicTopology.peer[20].bitTorrentApp.bitTorrentClient.contentManager_26  PiecesDownloaded:vector  ETV
attr source  ContentManager_PieceDownloaded
attr title  "Pieces Downloaded, vector"
vector 993  BasicTopology.peer[20].bitTorrentApp.bitTorrentClient.contentManager_26  TotalBytesUploaded:vector  ETV
attr source  ContentManager_TotalBytesUploaded
attr title  "Total of Bytes Uploaded, vector"
attr unit  B
vector 967  BasicTopology.peer[17].bitTorrentApp.bitTorrentClient.contentManager_26  PiecesDownloaded:vector  ETV
attr source  ContentManager_PieceDownloaded
attr title  "Pieces Downloaded, vector"
vector 969  BasicTopology.peer[17].bitTorrentApp.bitTorrentClient.contentManager_26  TotalBytesUploaded:vector  ETV
attr source  ContentManager_TotalBytesUploaded
attr title  "Total of Bytes Uploaded, vector"
attr unit  B
vector 896  BasicTopology.peer[8].bitTorrentApp.bitTorrentClient.contentManager_26  TotalBytesDownloaded:vector  ETV
attr source  ContentManager_TotalBytesDownloaded
attr title  "Total of Bytes Downloaded, vector"
attr unit  B
vector 1024  BasicTopology.peer[24].bitTorrentApp.bitTorrentClient.contentManager_26  TotalBytesDownloaded:vector  ETV
attr source  ContentManager_TotalBytesDownloaded
attr title  "Total of Bytes Downloaded, vector"
attr unit  B
vector 911  BasicTopology.peer[10].bitTorrentApp.bitTorrentClient.contentManager_26  PiecesDownloaded:vector  ETV
attr source  ContentManager_PieceDownloaded
attr title  "Pieces Downloaded, vector"
vector 983  BasicTopology.peer[19].bitTorrentApp.bitTorrentClient.contentManager_26  PiecesDownloaded:vector  ETV
attr source  ContentManager_PieceDownloaded
attr title  "Pieces Downloaded, vector"
vector 951  BasicTopology.peer[15].bitTorrentApp.bitTorrentClient.contentManager_26  PiecesDownloaded:vector  ETV
attr source  ContentManager_PieceDownloaded
attr title  "Pieces Downloaded, vector"
vector 953  BasicTopology.peer[15].bitTorrentApp.bitTorrentClient.contentManager_26  TotalBytesUploaded:vector  ETV
attr source  ContentManager_TotalBytesUploaded
attr title  "Total of Bytes Uploaded, vector"
attr unit  B
vector 1016  BasicTopology.peer[23].bitTorrentApp.bitTorrentClient.contentManager_26  TotalBytesDownloaded:vector  ETV
attr source  ContentManager_TotalBytesDownloaded
attr title  "Total of Bytes Downloaded, vector"
attr unit  B
vector 975  BasicTopology.peer[18].bitTorrentApp.bitTorrentClient.contentManager_26  PiecesDownloaded:vector  ETV
attr source  ContentManager_PieceDownloaded
attr title  "Pieces Downloaded, vector"
vector 913  BasicTopology.peer[10].bitTorrentApp.bitTorrentClient.contentManager_26  TotalBytesUploaded:vector  ETV
attr source  ContentManager_TotalBytesUploaded
attr title  "Total of Bytes Uploaded, vector"
attr unit  B
vector 848  BasicTopology.peer[2].bitTorrentApp.bitTorrentClient.contentManager_26  TotalBytesDownloaded:vector  ETV
attr source  ContentManager_TotalBytesDownloaded
attr title  "Total of Bytes Downloaded, vector"
attr unit  B
vector 920  BasicTopology.peer[11].bitTorrentApp.bitTorrentClient.contentManager_26  TotalBytesDownloaded:vector  ETV
attr source  ContentManager_TotalBytesDownloaded
attr title  "Total of Bytes Downloaded, vector"
attr unit  B
vector 880  BasicTopology.peer[6].bitTorrentApp.bitTorrentClient.contentManager_26  TotalBytesDownloaded:vector  ETV
attr source  ContentManager_TotalBytesDownloaded
attr title  "Total of Bytes Downloaded, vector"
attr unit  B
vector 888  BasicTopology.peer[7].bitTorrentApp.bitTorrentClient.contentManager_26  TotalBytesDownloaded:vector  ETV
attr source  ContentManager_TotalBytesDownloaded
attr title  "Total of Bytes Downloaded, vector"
attr unit  B
vector 887  BasicTopology.peer[7].bitTorrentApp.bitTorrentClient.contentManager_26  PiecesDownloaded:vector  ETV
attr source  ContentManager_PieceDownloaded
attr title  "Pieces Downloaded, vector"
vector 872  BasicTopology.peer[5].bitTorrentApp.bitTorrentClient.contentManager_26  TotalBytesDownloaded:vector  ETV
attr source  ContentManager_TotalBytesDownloaded
attr title  "Total of Bytes Downloaded, vector"
attr unit  B
vector 935  BasicTopology.peer[13].bitTorrentApp.bitTorrentClient.contentManager_26  PiecesDownloaded:vector  ETV
attr source  ContentManager_PieceDownloaded
attr title  "Pieces Downloaded, vector"
vector 937  BasicTopology.peer[13].bitTorrentApp.bitTorrentClient.contentManager_26  TotalBytesUploaded:vector  ETV
attr source  ContentManager_TotalBytesUploaded
attr title  "Total of Bytes Uploaded, vector"
attr unit  B
vector 855  BasicTopology.peer[3].bitTorrentApp.bitTorrentClient.contentManager_26  PiecesDownloaded:vector  ETV
attr source  ContentManager_PieceDownloaded
attr title  "Pieces Downloaded, vector"
vector 1008  BasicTopology.peer[22].bitTorrentApp.bitTorrentClient.contentManager_26  TotalBytesDownloaded:vector  ETV
attr source  ContentManager_TotalBytesDownloaded
attr title  "Total of Bytes Downloaded, vector"
attr unit  B
vector 879  BasicTopology.peer[6].bitTorrentApp.bitTorrentClient.contentManager_26  PiecesDownloaded:vector  ETV
attr source  ContentManager_PieceDownloaded
attr title  "Pieces Downloaded, vector"
vector 895  BasicTopology.peer[8].bitTorrentApp.bitTorrentClient.contentManager_26  PiecesDownloaded:vector  ETV
attr source  ContentManager_PieceDownloaded
attr title  "Pieces Downloaded, vector"
vector 1023  BasicTopology.peer[24].bitTorrentApp.bitTorrentClient.contentManager_26  PiecesDownloaded:vector  ETV
attr source  ContentManager_PieceDownloaded
attr title  "Pieces Downloaded, vector"
vector 927  BasicTopology.peer[12].bitTorrentApp.bitTorrentClient.contentManager_26  PiecesDownloaded:vector  ETV
attr source  ContentManager_PieceDownloaded
attr title  "Pieces Downloaded, vector"
vector 929  BasicTopology.peer[12].bitTorrentApp.bitTorrentClient.contentManager_26  TotalBytesUploaded:vector  ETV
attr source  ContentManager_TotalBytesUploaded
attr title  "Total of Bytes Uploaded, vector"
attr unit  B
vector 959  BasicTopology.peer[16].bitTorrentApp.bitTorrentClient.contentManager_26  PiecesDownloaded:vector  ETV
attr source  ContentManager_PieceDownloaded
attr title  "Pieces Downloaded, vector"
vector 863  BasicTopology.peer[4].bitTorrentApp.bitTorrentClient.contentManager_26  PiecesDownloaded:vector  ETV
attr source  ContentManager_PieceDownloaded
attr title  "Pieces Downloaded, vector"
vector 865  BasicTopology.peer[4].bitTorrentApp.bitTorrentClient.contentManager_26  TotalBytesUploaded:vector  ETV
attr source  ContentManager_TotalBytesUploaded
attr title  "Total of Bytes Uploaded, vector"
attr unit  B
vector 1015  BasicTopology.peer[23].bitTorrentApp.bitTorrentClient.contentManager_26  PiecesDownloaded:vector  ETV
attr source  ContentManager_PieceDownloaded
attr title  "Pieces Downloaded, vector"
vector 857  BasicTopology.peer[3].bitTorrentApp.bitTorrentClient.contentManager_26  TotalBytesUploaded:vector  ETV
attr source  ContentManager_TotalBytesUploaded
attr title  "Total of Bytes Uploaded, vector"
attr unit  B
vector 1007  BasicTopology.peer[22].bitTorrentApp.bitTorrentClient.contentManager_26  PiecesDownloaded:vector  ETV
attr source  ContentManager_PieceDownloaded
attr title  "Pieces Downloaded, vector"
vector 847  BasicTopology.peer[2].bitTorrentApp.bitTorrentClient.contentManager_26  PiecesDownloaded:vector  ETV
attr source  ContentManager_PieceDownloaded
attr title  "Pieces Downloaded, vector"
vector 871  BasicTopology.peer[5].bitTorrentApp.bitTorrentClient.contentManager_26  PiecesDownloaded:vector  ETV
attr source  ContentManager_PieceDownloaded
attr title  "Pieces Downloaded, vector"
vector 873  BasicTopology.peer[5].bitTorrentApp.bitTorrentClient.contentManager_26  TotalBytesUploaded:vector  ETV
attr source  ContentManager_TotalBytesUploaded
attr title  "Total of Bytes Uploaded, vector"
attr unit  B
vector 1017  BasicTopology.peer[23].bitTorrentApp.bitTorrentClient.contentManager_26  TotalBytesUploaded:vector  ETV
attr source  ContentManager_TotalBytesUploaded
attr title  "Total of Bytes Uploaded, vector"
attr unit  B
vector 1009  BasicTopology.peer[22].bitTorrentApp.bitTorrentClient.contentManager_26  TotalBytesUploaded:vector  ETV
attr source  ContentManager_TotalBytesUploaded
attr title  "Total of Bytes Uploaded, vector"
attr unit  B
vector 1025  BasicTopology.peer[24].bitTorrentApp.bitTorrentClient.contentManager_26  TotalBytesUploaded:vector  ETV
attr source  ContentManager_TotalBytesUploaded
attr title  "Total of Bytes Uploaded, vector"
attr unit  B
vector 849  BasicTopology.peer[2].bitTorrentApp.bitTorrentClient.contentManager_26  TotalBytesUploaded:vector  ETV
attr source  ContentManager_TotalBytesUploaded
attr title  "Total of Bytes Uploaded, vector"
attr unit  B
vector 897  BasicTopology.peer[8].bitTorrentApp.bitTorrentClient.contentManager_26  TotalBytesUploaded:vector  ETV
attr source  ContentManager_TotalBytesUploaded
attr title  "Total of Bytes Uploaded, vector"
attr unit  B
vector 943  BasicTopology.peer[14].bitTorrentApp.bitTorrentClient.contentManager_26  PiecesDownloaded:vector  ETV
attr source  ContentManager_PieceDownloaded
attr title  "Pieces Downloaded, vector"
vector 889  BasicTopology.peer[7].bitTorrentApp.bitTorrentClient.contentManager_26  TotalBytesUploaded:vector  ETV
attr source  ContentManager_TotalBytesUploaded
attr title  "Total of Bytes Uploaded, vector"
attr unit  B
vector 919  BasicTopology.peer[11].bitTorrentApp.bitTorrentClient.contentManager_26  PiecesDownloaded:vector  ETV
attr source  ContentManager_PieceDownloaded
attr title  "Pieces Downloaded, vector"
vector 921  BasicTopology.peer[11].bitTorrentApp.bitTorrentClient.contentManager_26  TotalBytesUploaded:vector  ETV
attr source  ContentManager_TotalBytesUploaded
attr title  "Total of Bytes Uploaded, vector"
attr unit  B
vector 881  BasicTopology.peer[6].bitTorrentApp.bitTorrentClient.contentManager_26  TotalBytesUploaded:vector  ETV
attr source  ContentManager_TotalBytesUploaded
attr title  "Total of Bytes Uploaded, vector"
attr unit  B
vector 961  BasicTopology.peer[16].bitTorrentApp.bitTorrentClient.contentManager_26  TotalBytesUploaded:vector  ETV
attr source  ContentManager_TotalBytesUploaded
attr title  "Total of Bytes Uploaded, vector"
attr unit  B
vector 945  BasicTopology.peer[14].bitTorrentApp.bitTorrentClient.contentManager_26  TotalBytesUploaded:vector  ETV
attr source  ContentManager_TotalBytesUploaded
attr title  "Total of Bytes Uploaded, vector"
attr unit  B
3	103	36001	36001
3	31487378	36049.731550338463	36049.731550338
5	104	36001	36001
5	64322871	36108.301140772205	36108.301140772
7	105	36001	36001
7	45505492	36072.061139269978	36072.06113927
9	106	36001	36001
9	72420497	36126.219153530199	36126.21915353
11	107	36001	36001
11	80219077	36304.110764314073	36304.110764314
13	108	36001	36001
13	79535340	36182.558065318147	36182.558065318
15	109	36001	36001
15	75541046	36138.659978643044	36138.659978643
17	110	36001	36001
17	75052872	36134.688415511578	36134.688415512
19	111	36001	36001
19	75941636	36140.774428490133	36140.77442849
21	112	36001	36001
21	23401362	36038.094570956404	36038.094570956
23	113	36001	36001
23	77148941	36155.457490983601	36155.457490984
25	114	36001	36001
25	65437884	36110.631703360453	36110.63170336
27	115	36001	36001
27	74585169	36133.067659771184	36133.067659771
29	116	36001	36001
29	77429732	36158.162564359234	36158.162564359
31	117	36001	36001
31	79390406	36181.302598247159	36181.302598247
33	118	36001	36001
33	79882026	36184.80303034952	36184.80303035
35	119	36001	36001
35	70010571	36120.193937240356	36120.19393724
37	120	36001	36001
37	78663964	36162.915815563179	36162.915815563
39	121	36001	36001
39	76482453	36145.11406032864	36145.114060329
41	122	36001	36001
41	78332859	36161.497396574206	36161.497396574
43	123	36001	36001
43	60570073	36101.047470384168	36101.047470384
45	124	36001	36001
45	52671074	36085.45503957409	36085.455039574
47	125	36001	36001
47	58379943	36096.607661803409	36096.607661803
49	126	36001	36001
49	53915268	36087.84114123336	36087.841141233
833	104989	36001.076873840799	16384
833	106408	36001.078399043898	32768
833	107796	36001.080850884293	49152
833	108764	36001.082160579773	65536
833	118273	36001.099207958137	81920
833	118608	36001.099957046987	98304
833	120062	36001.115434638178	114688
833	120073	36001.119222119796	131072
833	133030	36001.130676096389	147456
833	137241	36001.134645913441	163840
833	173146	36001.219869648832	180224
833	176024	36001.229963075522	196608
833	179419	36001.242851578047	212992
833	181924	36001.25213476693	229376
833	182688	36001.254742911827	245760
833	182690	36001.258496894583	262144
833	182692	36001.259747641271	278528
833	182694	36001.260746865106	294912
833	182696	36001.26131318702	311296
833	182698	36001.261719436329	327680
833	347606	36002.454169158636	344064
833	354915	36002.477812105268	360448
833	375260	36002.508604360526	376832
833	444054	36002.609994729963	393216
833	454927	36002.644479277168	409600
833	463458	36002.674663198845	425984
833	473700	36002.712043938682	442368
833	484278	36002.750662234422	458752
833	488806	36002.768987644157	475136
833	499298	36002.808891642478	491520
833	520887	36002.85703685761	507904
833	544025	36002.924129622528	524288
833	846833	36003.607609308598	540672
833	876528	36003.651209122813	557056
833	884939	36003.661844556887	573440
833	925381	36003.714886435679	589824
833	974080	36003.784690527635	606208
833	1049752	36003.982125754448	622592
833	1051236	36003.986768060992	638976
833	1160305	36004.084931368744	655360
833	1161254	36004.085707570982	671744
833	1171346	36004.094201084611	688128
833	1175744	36004.098358081773	704512
833	1178691	36004.100841801329	720896
833	1178957	36004.101084307828	737280
833	1180672	36004.102742569458	753664
833	1181396	36004.103630126733	770048
833	1183418	36004.106367441877	786432
833	1183546	36004.106520185291	802816
833	1277121	36004.216086438591	819200
833	1277729	36004.216756754095	835584
833	1280194	36004.220406264317	851968
833	1280344	36004.220577392208	868352
833	1284526	36004.228955611436	884736
833	1287571	36004.233347290317	901120
833	1289036	36004.235547388128	917504
833	1302753	36004.254364601493	933888
833	1304014	36004.255820197048	950272
833	1314002	36004.270202649388	966656
833	1314226	36004.27054583148	983040
833	1316601	36004.274450441167	999424
833	1326811	36004.291170415077	1015808
833	1327873	36004.293602149946	1032192
833	1328001	36004.294196167129	1048576
833	1333483	36004.310958701401	1064960
833	1337836	36004.324841904817	1081344
833	1338387	36004.326428451422	1097728
833	1338906	36004.328196076503	1114112
833	1340800	36004.335541290219	1130496
833	1342744	36004.341643090036	1146880
833	1343541	36004.345490624683	1163264
833	1352511	36004.374949183717	1179648
833	1471575	36004.632475971474	1196032
833	1471833	36004.633313879958	1212416
833	1471911	36004.633682672226	1228800
833	1478821	36004.646084220259	1245184
833	1485096	36004.658572815574	1261568
833	1485625	36004.659812262779	1277952
833	1486382	36004.661550719003	1294336
833	1487274	36004.663948549169	1310720
833	1489050	36004.669264208356	1327104
833	1496260	36004.689784867848	1343488
833	1497303	36004.693170866374	1359872
833	1528278	36004.767935184694	1376256
833	1562658	36004.861467541205	1392640
833	1568927	36004.883889762047	1409024
833	1588460	36004.916826853305	1425408
833	1620680	36004.972844867057	1441792
833	1650787	36005.025450761278	1458176
833	1670039	36005.051286252001	1474560
833	1672007	36005.055591152523	1490944
833	1672025	36005.055622953686	1507328
833	1672779	36005.057172429787	1523712
833	1677053	36005.068617662675	1540096
833	1687587	36005.091978863501	1556480
833	1693920	36005.105516577249	1572864
833	1695119	36005.109422520616	1589248
833	1695556	36005.110703824626	1605632
833	1697023	36005.114107390198	1622016
833	1706041	36005.136236186964	1638400
833	1706214	36005.136600235645	1654784
833	1847473	36005.401445937385	1671168
833	1888495	36005.467369108577	1687552
833	1899615	36005.483612261967	1703936
833	1921662	36005.513371690148	1720320
833	1941712	36005.53875525232	1736704
833	2410805	36006.583205861742	1753088
833	2421063	36006.600955182233	1769472
833	2421346	36006.601635162359	1785856
833	2437238	36006.622017239344	1802240
833	2441875	36006.627829199769	1818624
833	2740055	36007.161997707586	1835008
833	2756750	36007.184258019701	1851392
833	2757024	36007.18456473679	1867776
833	2787137	36007.224929991026	1884160
833	2796231	36007.239511726769	1900544
833	2806105	36007.254023120662	1916928
833	2806179	36007.254082676288	1933312
833	2852340	36007.317903331276	1949696
833	2866999	36007.341341025387	1966080
833	2895717	36007.383460080112	1982464
833	2989649	36007.544988803196	1998848
833	3023238	36007.591111801132	2015232
833	3061645	36007.658424059041	2031616
833	3103286	36007.715389787854	2048000
833	3103760	36007.71619181637	2064384
833	3103996	36007.716599790981	2080768
833	3117761	36007.736345497996	2097152
833	3121279	36007.741140995558	2113536
833	3132413	36007.755973391693	2129920
833	3151687	36007.780687636295	2146304
833	3260997	36007.94218428908	2162688
833	3285895	36007.980694190101	2179072
833	3529565	36008.428962540133	2195456
833	3718456	36008.696851564613	2211840
833	3907332	36008.983266798096	2228224
833	4386606	36009.797993349954	2244608
833	4474238	36009.914590316369	2260992
833	4848837	36010.450513670421	2277376
833	4855614	36010.472968264838	2293760
833	4898060	36010.568958197561	2310144
833	5002974	36010.734832900816	2326528
833	5060168	36010.828456640383	2342912
833	5063354	36010.833114887651	2359296
833	5069739	36010.842629410193	2375680
833	5080063	36010.861989092349	2392064
833	6821649	36013.792587135641	2408448
833	6844634	36013.827060052697	2424832
833	6858233	36013.84964478179	2441216
833	6877385	36013.87703440331	2457600
833	6925276	36013.950659843777	2473984
833	6964276	36014.006914641378	2490368
833	6982299	36014.033145999546	2506752
833	7000568	36014.072662388589	2523136
833	7014418	36014.091702374538	2539520
833	7033030	36014.11878184308	2555904
833	7033766	36014.119576638066	2572288
833	7050209	36014.143745538827	2588672
833	7057576	36014.160635514923	2605056
833	7298160	36014.620051358176	2621440
833	7339004	36014.680899937916	2637824
833	7371560	36014.730983276892	2654208
833	7479994	36014.904317385289	2670592
833	7502175	36014.935340234706	2686976
833	7524033	36014.965277348458	2703360
833	7675251	36015.207360798436	2719744
833	7689442	36015.226771419785	2736128
833	7711697	36015.254709583724	2752512
833	7725667	36015.275936766833	2768896
833	7749886	36015.308184276353	2785280
833	7784577	36015.35057016552	2801664
833	7807494	36015.378623527751	2818048
833	7807603	36015.378719031568	2834432
833	7827622	36015.401372355119	2850816
833	7829081	36015.40271587934	2867200
833	7839968	36015.417667095119	2883584
833	7845253	36015.423799558244	2899968
833	8065111	36015.769671414849	2916352
833	8066227	36015.773072728347	2932736
833	8084870	36015.812766453848	2949120
833	8207344	36016.013678347916	2965504
833	8242509	36016.069831725637	2981888
833	8279584	36016.128322067828	2998272
833	8298629	36016.154428053427	3014656
833	8320449	36016.184405053141	3031040
833	8327942	36016.194545233593	3047424
833	8365418	36016.249761302936	3063808
833	8387753	36016.282533592178	3080192
833	8399325	36016.299585745182	3096576
833	8421852	36016.332943100647	3112960
833	8449672	36016.374297969439	3129344
833	8486556	36016.430889088023	3145728
833	8495886	36016.443505452828	3162112
833	8509622	36016.463021182363	3178496
833	8519649	36016.476929604258	3194880
833	8550640	36016.514894919591	3211264
833	8564231	36016.533386841346	3227648
833	8597557	36016.574807864739	3244032
833	9028855	36017.19604000572	3260416
833	9105389	36017.308647347134	3276800
833	9143875	36017.366821296834	3293184
833	9187722	36017.433373360944	3309568
833	9220913	36017.48126359185	3325952
833	9257870	36017.536684133018	3342336