file 424888 1587775467                                          
version 2
run Test-12-20200424-14:09:31-6625
attr configname Test
attr datetime 20200424-14:09:31
attr experiment "\"Simulation Test\""
attr inifile BasicConfig.ini
attr iterationvars ""
attr iterationvars2 $repetition=12
attr measurement "\"Peers: $peers, Rate: $rate\""
attr network BasicTopology
attr processid 6625
attr repetition 12
attr replication #12
attr resultdir results
attr runnumber 12
attr seedset 12

vector 3  BasicTopology.peer[1].bitTorrentApp.bitTorrentClient  DownloadComplete_Test:vector  ETV
attr source  BitTorrentClient_DownloadComplete_Test
attr title  "Descargas completas (prueba), vector"
vector 5  BasicTopology.peer[2].bitTorrentApp.bitTorrentClient  DownloadComplete_Test:vector  ETV
attr source  BitTorrentClient_DownloadComplete_Test
attr title  "Descargas completas (prueba), vector"
vector 7  BasicTopology.peer[3].bitTorrentApp.bitTorrentClient  DownloadComplete_Test:vector  ETV
attr source  BitTorrentClient_DownloadComplete_Test
attr title  "Descargas completas (prueba), vector"
vector 9  BasicTopology.peer[4].bitTorrentApp.bitTorrentClient  DownloadComplete_Test:vector  ETV
attr source  BitTorrentClient_DownloadComplete_Test
attr title  "Descargas completas (prueba), vector"
vector 11  BasicTopology.peer[5].bitTorrentApp.bitTorrentClient  DownloadComplete_Test:vector  ETV
attr source  BitTorrentClient_DownloadComplete_Test
attr title  "Descargas completas (prueba), vector"
vector 13  BasicTopology.peer[6].bitTorrentApp.bitTorrentClient  DownloadComplete_Test:vector  ETV
attr source  BitTorrentClient_DownloadComplete_Test
attr title  "Descargas completas (prueba), vector"
vector 15  BasicTopology.peer[7].bitTorrentApp.bitTorrentClient  DownloadComplete_Test:vector  ETV
attr source  BitTorrentClient_DownloadComplete_Test
attr title  "Descargas completas (prueba), vector"
vector 17  BasicTopology.peer[8].bitTorrentApp.bitTorrentClient  DownloadComplete_Test:vector  ETV
attr source  BitTorrentClient_DownloadComplete_Test
attr title  "Descargas completas (prueba), vector"
vector 19  BasicTopology.peer[9].bitTorrentApp.bitTorrentClient  DownloadComplete_Test:vector  ETV
attr source  BitTorrentClient_DownloadComplete_Test
attr title  "Descargas completas (prueba), vector"
vector 21  BasicTopology.peer[10].bitTorrentApp.bitTorrentClient  DownloadComplete_Test:vector  ETV
attr source  BitTorrentClient_DownloadComplete_Test
attr title  "Descargas completas (prueba), vector"
vector 23  BasicTopology.peer[11].bitTorrentApp.bitTorrentClient  DownloadComplete_Test:vector  ETV
attr source  BitTorrentClient_DownloadComplete_Test
attr title  "Descargas completas (prueba), vector"
vector 25  BasicTopology.peer[12].bitTorrentApp.bitTorrentClient  DownloadComplete_Test:vector  ETV
attr source  BitTorrentClient_DownloadComplete_Test
attr title  "Descargas completas (prueba), vector"
vector 27  BasicTopology.peer[13].bitTorrentApp.bitTorrentClient  DownloadComplete_Test:vector  ETV
attr source  BitTorrentClient_DownloadComplete_Test
attr title  "Descargas completas (prueba), vector"
vector 29  BasicTopology.peer[14].bitTorrentApp.bitTorrentClient  DownloadComplete_Test:vector  ETV
attr source  BitTorrentClient_DownloadComplete_Test
attr title  "Descargas completas (prueba), vector"
vector 31  BasicTopology.peer[15].bitTorrentApp.bitTorrentClient  DownloadComplete_Test:vector  ETV
attr source  BitTorrentClient_DownloadComplete_Test
attr title  "Descargas completas (prueba), vector"
vector 33  BasicTopology.peer[16].bitTorrentApp.bitTorrentClient  DownloadComplete_Test:vector  ETV
attr source  BitTorrentClient_DownloadComplete_Test
attr title  "Descargas completas (prueba), vector"
vector 35  BasicTopology.peer[17].bitTorrentApp.bitTorrentClient  DownloadComplete_Test:vector  ETV
attr source  BitTorrentClient_DownloadComplete_Test
attr title  "Descargas completas (prueba), vector"
vector 37  BasicTopology.peer[18].bitTorrentApp.bitTorrentClient  DownloadComplete_Test:vector  ETV
attr source  BitTorrentClient_DownloadComplete_Test
attr title  "Descargas completas (prueba), vector"
vector 39  BasicTopology.peer[19].bitTorrentApp.bitTorrentClient  DownloadComplete_Test:vector  ETV
attr source  BitTorrentClient_DownloadComplete_Test
attr title  "Descargas completas (prueba), vector"
vector 41  BasicTopology.peer[20].bitTorrentApp.bitTorrentClient  DownloadComplete_Test:vector  ETV
attr source  BitTorrentClient_DownloadComplete_Test
attr title  "Descargas completas (prueba), vector"
vector 43  BasicTopology.peer[21].bitTorrentApp.bitTorrentClient  DownloadComplete_Test:vector  ETV
attr source  BitTorrentClient_DownloadComplete_Test
attr title  "Descargas completas (prueba), vector"
vector 45  BasicTopology.peer[22].bitTorrentApp.bitTorrentClient  DownloadComplete_Test:vector  ETV
attr source  BitTorrentClient_DownloadComplete_Test
attr title  "Descargas completas (prueba), vector"
vector 47  BasicTopology.peer[23].bitTorrentApp.bitTorrentClient  DownloadComplete_Test:vector  ETV
attr source  BitTorrentClient_DownloadComplete_Test
attr title  "Descargas completas (prueba), vector"
vector 49  BasicTopology.peer[24].bitTorrentApp.bitTorrentClient  DownloadComplete_Test:vector  ETV
attr source  BitTorrentClient_DownloadComplete_Test
attr title  "Descargas completas (prueba), vector"
vector 833  BasicTopology.peer[0].bitTorrentApp.bitTorrentClient.contentManager_26  TotalBytesUploaded:vector  ETV
attr source  ContentManager_TotalBytesUploaded
attr title  "Total of Bytes Uploaded, vector"
attr unit  B
vector 920  BasicTopology.peer[11].bitTorrentApp.bitTorrentClient.contentManager_26  TotalBytesDownloaded:vector  ETV
attr source  ContentManager_TotalBytesDownloaded
attr title  "Total of Bytes Downloaded, vector"
attr unit  B
vector 912  BasicTopology.peer[10].bitTorrentApp.bitTorrentClient.contentManager_26  TotalBytesDownloaded:vector  ETV
attr source  ContentManager_TotalBytesDownloaded
attr title  "Total of Bytes Downloaded, vector"
attr unit  B
vector 911  BasicTopology.peer[10].bitTorrentApp.bitTorrentClient.contentManager_26  PiecesDownloaded:vector  ETV
attr source  ContentManager_PieceDownloaded
attr title  "Pieces Downloaded, vector"
vector 913  BasicTopology.peer[10].bitTorrentApp.bitTorrentClient.contentManager_26  TotalBytesUploaded:vector  ETV
attr source  ContentManager_TotalBytesUploaded
attr title  "Total of Bytes Uploaded, vector"
attr unit  B
vector 848  BasicTopology.peer[2].bitTorrentApp.bitTorrentClient.contentManager_26  TotalBytesDownloaded:vector  ETV
attr source  ContentManager_TotalBytesDownloaded
attr title  "Total of Bytes Downloaded, vector"
attr unit  B
vector 928  BasicTopology.peer[12].bitTorrentApp.bitTorrentClient.contentManager_26  TotalBytesDownloaded:vector  ETV
attr source  ContentManager_TotalBytesDownloaded
attr title  "Total of Bytes Downloaded, vector"
attr unit  B
vector 840  BasicTopology.peer[1].bitTorrentApp.bitTorrentClient.contentManager_26  TotalBytesDownloaded:vector  ETV
attr source  ContentManager_TotalBytesDownloaded
attr title  "Total of Bytes Downloaded, vector"
attr unit  B
vector 919  BasicTopology.peer[11].bitTorrentApp.bitTorrentClient.contentManager_26  PiecesDownloaded:vector  ETV
attr source  ContentManager_PieceDownloaded
attr title  "Pieces Downloaded, vector"
vector 921  BasicTopology.peer[11].bitTorrentApp.bitTorrentClient.contentManager_26  TotalBytesUploaded:vector  ETV
attr source  ContentManager_TotalBytesUploaded
attr title  "Total of Bytes Uploaded, vector"
attr unit  B
vector 1016  BasicTopology.peer[23].bitTorrentApp.bitTorrentClient.contentManager_26  TotalBytesDownloaded:vector  ETV
attr source  ContentManager_TotalBytesDownloaded
attr title  "Total of Bytes Downloaded, vector"
attr unit  B
vector 952  BasicTopology.peer[15].bitTorrentApp.bitTorrentClient.contentManager_26  TotalBytesDownloaded:vector  ETV
attr source  ContentManager_TotalBytesDownloaded
attr title  "Total of Bytes Downloaded, vector"
attr unit  B
vector 936  BasicTopology.peer[13].bitTorrentApp.bitTorrentClient.contentManager_26  TotalBytesDownloaded:vector  ETV
attr source  ContentManager_TotalBytesDownloaded
attr title  "Total of Bytes Downloaded, vector"
attr unit  B
vector 992  BasicTopology.peer[20].bitTorrentApp.bitTorrentClient.contentManager_26  TotalBytesDownloaded:vector  ETV
attr source  ContentManager_TotalBytesDownloaded
attr title  "Total of Bytes Downloaded, vector"
attr unit  B
vector 839  BasicTopology.peer[1].bitTorrentApp.bitTorrentClient.contentManager_26  PiecesDownloaded:vector  ETV
attr source  ContentManager_PieceDownloaded
attr title  "Pieces Downloaded, vector"
vector 841  BasicTopology.peer[1].bitTorrentApp.bitTorrentClient.contentManager_26  TotalBytesUploaded:vector  ETV
attr source  ContentManager_TotalBytesUploaded
attr title  "Total of Bytes Uploaded, vector"
attr unit  B
vector 847  BasicTopology.peer[2].bitTorrentApp.bitTorrentClient.contentManager_26  PiecesDownloaded:vector  ETV
attr source  ContentManager_PieceDownloaded
attr title  "Pieces Downloaded, vector"
vector 849  BasicTopology.peer[2].bitTorrentApp.bitTorrentClient.contentManager_26  TotalBytesUploaded:vector  ETV
attr source  ContentManager_TotalBytesUploaded
attr title  "Total of Bytes Uploaded, vector"
attr unit  B
vector 888  BasicTopology.peer[7].bitTorrentApp.bitTorrentClient.contentManager_26  TotalBytesDownloaded:vector  ETV
attr source  ContentManager_TotalBytesDownloaded
attr title  "Total of Bytes Downloaded, vector"
attr unit  B
vector 864  BasicTopology.peer[4].bitTorrentApp.bitTorrentClient.contentManager_26  TotalBytesDownloaded:vector  ETV
attr source  ContentManager_TotalBytesDownloaded
attr title  "Total of Bytes Downloaded, vector"
attr unit  B
vector 856  BasicTopology.peer[3].bitTorrentApp.bitTorrentClient.contentManager_26  TotalBytesDownloaded:vector  ETV
attr source  ContentManager_TotalBytesDownloaded
attr title  "Total of Bytes Downloaded, vector"
attr unit  B
vector 872  BasicTopology.peer[5].bitTorrentApp.bitTorrentClient.contentManager_26  TotalBytesDownloaded:vector  ETV
attr source  ContentManager_TotalBytesDownloaded
attr title  "Total of Bytes Downloaded, vector"
attr unit  B
vector 1015  BasicTopology.peer[23].bitTorrentApp.bitTorrentClient.contentManager_26  PiecesDownloaded:vector  ETV
attr source  ContentManager_PieceDownloaded
attr title  "Pieces Downloaded, vector"
vector 1000  BasicTopology.peer[21].bitTorrentApp.bitTorrentClient.contentManager_26  TotalBytesDownloaded:vector  ETV
attr source  ContentManager_TotalBytesDownloaded
attr title  "Total of Bytes Downloaded, vector"
attr unit  B
vector 1017  BasicTopology.peer[23].bitTorrentApp.bitTorrentClient.contentManager_26  TotalBytesUploaded:vector  ETV
attr source  ContentManager_TotalBytesUploaded
attr title  "Total of Bytes Uploaded, vector"
attr unit  B
vector 896  BasicTopology.peer[8].bitTorrentApp.bitTorrentClient.contentManager_26  TotalBytesDownloaded:vector  ETV
attr source  ContentManager_TotalBytesDownloaded
attr title  "Total of Bytes Downloaded, vector"
attr unit  B
vector 944  BasicTopology.peer[14].bitTorrentApp.bitTorrentClient.contentManager_26  TotalBytesDownloaded:vector  ETV
attr source  ContentManager_TotalBytesDownloaded
attr title  "Total of Bytes Downloaded, vector"
attr unit  B
vector 984  BasicTopology.peer[19].bitTorrentApp.bitTorrentClient.contentManager_26  TotalBytesDownloaded:vector  ETV
attr source  ContentManager_TotalBytesDownloaded
attr title  "Total of Bytes Downloaded, vector"
attr unit  B
vector 855  BasicTopology.peer[3].bitTorrentApp.bitTorrentClient.contentManager_26  PiecesDownloaded:vector  ETV
attr source  ContentManager_PieceDownloaded
attr title  "Pieces Downloaded, vector"
vector 991  BasicTopology.peer[20].bitTorrentApp.bitTorrentClient.contentManager_26  PiecesDownloaded:vector  ETV
attr source  ContentManager_PieceDownloaded
attr title  "Pieces Downloaded, vector"
vector 857  BasicTopology.peer[3].bitTorrentApp.bitTorrentClient.contentManager_26  TotalBytesUploaded:vector  ETV
attr source  ContentManager_TotalBytesUploaded
attr title  "Total of Bytes Uploaded, vector"
attr unit  B
vector 904  BasicTopology.peer[9].bitTorrentApp.bitTorrentClient.contentManager_26  TotalBytesDownloaded:vector  ETV
attr source  ContentManager_TotalBytesDownloaded
attr title  "Total of Bytes Downloaded, vector"
attr unit  B
vector 863  BasicTopology.peer[4].bitTorrentApp.bitTorrentClient.contentManager_26  PiecesDownloaded:vector  ETV
attr source  ContentManager_PieceDownloaded
attr title  "Pieces Downloaded, vector"
vector 865  BasicTopology.peer[4].bitTorrentApp.bitTorrentClient.contentManager_26  TotalBytesUploaded:vector  ETV
attr source  ContentManager_TotalBytesUploaded
attr title  "Total of Bytes Uploaded, vector"
attr unit  B
vector 943  BasicTopology.peer[14].bitTorrentApp.bitTorrentClient.contentManager_26  PiecesDownloaded:vector  ETV
attr source  ContentManager_PieceDownloaded
attr title  "Pieces Downloaded, vector"
vector 945  BasicTopology.peer[14].bitTorrentApp.bitTorrentClient.contentManager_26  TotalBytesUploaded:vector  ETV
attr source  ContentManager_TotalBytesUploaded
attr title  "Total of Bytes Uploaded, vector"
attr unit  B
vector 960  BasicTopology.peer[16].bitTorrentApp.bitTorrentClient.contentManager_26  TotalBytesDownloaded:vector  ETV
attr source  ContentManager_TotalBytesDownloaded
attr title  "Total of Bytes Downloaded, vector"
attr unit  B
vector 993  BasicTopology.peer[20].bitTorrentApp.bitTorrentClient.contentManager_26  TotalBytesUploaded:vector  ETV
attr source  ContentManager_TotalBytesUploaded
attr title  "Total of Bytes Uploaded, vector"
attr unit  B
vector 903  BasicTopology.peer[9].bitTorrentApp.bitTorrentClient.contentManager_26  PiecesDownloaded:vector  ETV
attr source  ContentManager_PieceDownloaded
attr title  "Pieces Downloaded, vector"
vector 1024  BasicTopology.peer[24].bitTorrentApp.bitTorrentClient.contentManager_26  TotalBytesDownloaded:vector  ETV
attr source  ContentManager_TotalBytesDownloaded
attr title  "Total of Bytes Downloaded, vector"
attr unit  B
vector 895  BasicTopology.peer[8].bitTorrentApp.bitTorrentClient.contentManager_26  PiecesDownloaded:vector  ETV
attr source  ContentManager_PieceDownloaded
attr title  "Pieces Downloaded, vector"
vector 959  BasicTopology.peer[16].bitTorrentApp.bitTorrentClient.contentManager_26  PiecesDownloaded:vector  ETV
attr source  ContentManager_PieceDownloaded
attr title  "Pieces Downloaded, vector"
vector 880  BasicTopology.peer[6].bitTorrentApp.bitTorrentClient.contentManager_26  TotalBytesDownloaded:vector  ETV
attr source  ContentManager_TotalBytesDownloaded
attr title  "Total of Bytes Downloaded, vector"
attr unit  B
vector 871  BasicTopology.peer[5].bitTorrentApp.bitTorrentClient.contentManager_26  PiecesDownloaded:vector  ETV
attr source  ContentManager_PieceDownloaded
attr title  "Pieces Downloaded, vector"
vector 999  BasicTopology.peer[21].bitTorrentApp.bitTorrentClient.contentManager_26  PiecesDownloaded:vector  ETV
attr source  ContentManager_PieceDownloaded
attr title  "Pieces Downloaded, vector"
vector 976  BasicTopology.peer[18].bitTorrentApp.bitTorrentClient.contentManager_26  TotalBytesDownloaded:vector  ETV
attr source  ContentManager_TotalBytesDownloaded
attr title  "Total of Bytes Downloaded, vector"
attr unit  B
vector 1008  BasicTopology.peer[22].bitTorrentApp.bitTorrentClient.contentManager_26  TotalBytesDownloaded:vector  ETV
attr source  ContentManager_TotalBytesDownloaded
attr title  "Total of Bytes Downloaded, vector"
attr unit  B
vector 1023  BasicTopology.peer[24].bitTorrentApp.bitTorrentClient.contentManager_26  PiecesDownloaded:vector  ETV
attr source  ContentManager_PieceDownloaded
attr title  "Pieces Downloaded, vector"
vector 1025  BasicTopology.peer[24].bitTorrentApp.bitTorrentClient.contentManager_26  TotalBytesUploaded:vector  ETV
attr source  ContentManager_TotalBytesUploaded
attr title  "Total of Bytes Uploaded, vector"
attr unit  B
vector 897  BasicTopology.peer[8].bitTorrentApp.bitTorrentClient.contentManager_26  TotalBytesUploaded:vector  ETV
attr source  ContentManager_TotalBytesUploaded
attr title  "Total of Bytes Uploaded, vector"
attr unit  B
vector 968  BasicTopology.peer[17].bitTorrentApp.bitTorrentClient.contentManager_26  TotalBytesDownloaded:vector  ETV
attr source  ContentManager_TotalBytesDownloaded
attr title  "Total of Bytes Downloaded, vector"
attr unit  B
vector 879  BasicTopology.peer[6].bitTorrentApp.bitTorrentClient.contentManager_26  PiecesDownloaded:vector  ETV
attr source  ContentManager_PieceDownloaded
attr title  "Pieces Downloaded, vector"
vector 881  BasicTopology.peer[6].bitTorrentApp.bitTorrentClient.contentManager_26  TotalBytesUploaded:vector  ETV
attr source  ContentManager_TotalBytesUploaded
attr title  "Total of Bytes Uploaded, vector"
attr unit  B
vector 873  BasicTopology.peer[5].bitTorrentApp.bitTorrentClient.contentManager_26  TotalBytesUploaded:vector  ETV
attr source  ContentManager_TotalBytesUploaded
attr title  "Total of Bytes Uploaded, vector"
attr unit  B
vector 967  BasicTopology.peer[17].bitTorrentApp.bitTorrentClient.contentManager_26  PiecesDownloaded:vector  ETV
attr source  ContentManager_PieceDownloaded
attr title  "Pieces Downloaded, vector"
vector 935  BasicTopology.peer[13].bitTorrentApp.bitTorrentClient.contentManager_26  PiecesDownloaded:vector  ETV
attr source  ContentManager_PieceDownloaded
attr title  "Pieces Downloaded, vector"
vector 937  BasicTopology.peer[13].bitTorrentApp.bitTorrentClient.contentManager_26  TotalBytesUploaded:vector  ETV
attr source  ContentManager_TotalBytesUploaded
attr title  "Total of Bytes Uploaded, vector"
attr unit  B
vector 969  BasicTopology.peer[17].bitTorrentApp.bitTorrentClient.contentManager_26  TotalBytesUploaded:vector  ETV
attr source  ContentManager_TotalBytesUploaded
attr title  "Total of Bytes Uploaded, vector"
attr unit  B
vector 1001  BasicTopology.peer[21].bitTorrentApp.bitTorrentClient.contentManager_26  TotalBytesUploaded:vector  ETV
attr source  ContentManager_TotalBytesUploaded
attr title  "Total of Bytes Uploaded, vector"
attr unit  B
vector 975  BasicTopology.peer[18].bitTorrentApp.bitTorrentClient.contentManager_26  PiecesDownloaded:vector  ETV
attr source  ContentManager_PieceDownloaded
attr title  "Pieces Downloaded, vector"
vector 951  BasicTopology.peer[15].bitTorrentApp.bitTorrentClient.contentManager_26  PiecesDownloaded:vector  ETV
attr source  ContentManager_PieceDownloaded
attr title  "Pieces Downloaded, vector"
vector 887  BasicTopology.peer[7].bitTorrentApp.bitTorrentClient.contentManager_26  PiecesDownloaded:vector  ETV
attr source  ContentManager_PieceDownloaded
attr title  "Pieces Downloaded, vector"
vector 1007  BasicTopology.peer[22].bitTorrentApp.bitTorrentClient.contentManager_26  PiecesDownloaded:vector  ETV
attr source  ContentManager_PieceDownloaded
attr title  "Pieces Downloaded, vector"
vector 1009  BasicTopology.peer[22].bitTorrentApp.bitTorrentClient.contentManager_26  TotalBytesUploaded:vector  ETV
attr source  ContentManager_TotalBytesUploaded
attr title  "Total of Bytes Uploaded, vector"
attr unit  B
vector 977  BasicTopology.peer[18].bitTorrentApp.bitTorrentClient.contentManager_26  TotalBytesUploaded:vector  ETV
attr source  ContentManager_TotalBytesUploaded
attr title  "Total of Bytes Uploaded, vector"
attr unit  B
vector 927  BasicTopology.peer[12].bitTorrentApp.bitTorrentClient.contentManager_26  PiecesDownloaded:vector  ETV
attr source  ContentManager_PieceDownloaded
attr title  "Pieces Downloaded, vector"
vector 929  BasicTopology.peer[12].bitTorrentApp.bitTorrentClient.contentManager_26  TotalBytesUploaded:vector  ETV
attr source  ContentManager_TotalBytesUploaded
attr title  "Total of Bytes Uploaded, vector"
attr unit  B
vector 889  BasicTopology.peer[7].bitTorrentApp.bitTorrentClient.contentManager_26  TotalBytesUploaded:vector  ETV
attr source  ContentManager_TotalBytesUploaded
attr title  "Total of Bytes Uploaded, vector"
attr unit  B
vector 983  BasicTopology.peer[19].bitTorrentApp.bitTorrentClient.contentManager_26  PiecesDownloaded:vector  ETV
attr source  ContentManager_PieceDownloaded
attr title  "Pieces Downloaded, vector"
vector 905  BasicTopology.peer[9].bitTorrentApp.bitTorrentClient.contentManager_26  TotalBytesUploaded:vector  ETV
attr source  ContentManager_TotalBytesUploaded
attr title  "Total of Bytes Uploaded, vector"
attr unit  B
vector 961  BasicTopology.peer[16].bitTorrentApp.bitTorrentClient.contentManager_26  TotalBytesUploaded:vector  ETV
attr source  ContentManager_TotalBytesUploaded
attr title  "Total of Bytes Uploaded, vector"
attr unit  B
vector 953  BasicTopology.peer[15].bitTorrentApp.bitTorrentClient.contentManager_26  TotalBytesUploaded:vector  ETV
attr source  ContentManager_TotalBytesUploaded
attr title  "Total of Bytes Uploaded, vector"
attr unit  B
3	20811 63 103 80518708 36001 36304.191123530147 2 36001 36304.19112353 72305.19112353 2614066294.1338
5	20874 64 104 52633946 36001 36083.294111285016 2 36001 36083.294111285 72084.294111285 2598076114.9215
7	20938 64 105 66464910 36001 36110.736809379126 2 36001 36110.736809379 72111.736809379 2600057313.9162
9	21002 64 106 72656571 36001 36125.832325322132 2 36001 36125.832325322 72126.832325322 2601147762.1973
11	21066 66 107 61740971 36001 36101.193123104359 2 36001 36101.193123104 72102.193123104 2599368145.9117
13	21132 65 108 78354354 36001 36157.312202070069 2 36001 36157.31220207 72158.31220207 2603423226.678
15	21197 66 109 76119268 36001 36137.816763869064 2 36001 36137.816763869 72138.816763869 2602013801.459
17	21263 65 110 78556685 36001 36159.395623640152 2 36001 36159.39562364 72160.39562364 2603573892.8669
19	21328 66 111 78102627 36001 36155.887664391296 2 36001 36155.887664391 72156.887664391 2603320213.8001
21	21394 66 112 45272433 36001 36070.911090025347 2 36001 36070.911090025 72071.911090025 2597182627.8645
23	21460 66 113 78985709 36001 36160.810061955482 2 36001 36160.810061955 72161.810061955 2603676185.3368
25	21526 66 114 77597964 36001 36153.585503818235 2 36001 36153.585503818 72154.585503818 2603153745.7819
27	21592 66 115 76155127 36001 36138.281421183099 2 36001 36138.281421183 72139.281421183 2602047385.0766
29	21658 66 116 80302238 36001 36302.660899292135 2 36001 36302.660899292 72303.660899292 2613955189.369
31	21724 66 117 80232256 36001 36302.515513041527 2 36001 36302.515513042 72303.515513042 2613944633.5746
33	21790 66 118 70065125 36001 36119.428565151948 2 36001 36119.428565152 72120.428565152 2600685120.8731
35	21856 66 119 75493376 36001 36134.623928152814 2 36001 36134.623928153 72135.623928153 2601783047.429
37	21922 66 120 74638671 36001 36131.603581353209 2 36001 36131.603581353 72132.603581353 2601564778.3601
39	21988 66 121 75902776 36001 36136.830213974943 2 36001 36136.830213975 72137.830213975 2601942498.9137
41	22054 66 122 52442266 36001 36082.944602706747 2 36001 36082.944602707 72083.944602707 2598050892.202
43	22120 65 123 41927713 36001 36065.836222610036 2 36001 36065.83622261 72066.83622261 2596816543.4361
45	22185 66 124 67880436 36001 36113.916127842501 2 36001 36113.916127843 72114.916127843 2600286939.0888
47	22251 66 125 73999244 36001 36129.537565274358 2 36001 36129.537565274 72130.537565274 2601415485.6806
49	22317 66 126 77508131 36001 36153.408125329227 2 36001 36153.408125329 72154.408125329 2603140920.0766
833	22383 23037 289575 80141509 36001.581280672518 36301.107480149301 587 16384 9617408 2827517952 1.8144371199181e+16
839	45420 823 1551473 80518708 36006.057202122143 36304.191123530147 24 0 23 276 4324
840	46243 7552 913475 80518708 36004.227029282923 36304.191123530147 192 16384 3145728 303562752 6.3827508985856e+14
841	53795 12926 1581305 77176111 36006.125265072558 36152.320134762139 329 16384 5390336 889405440 3.2009867807949e+15
847	66721 825 1761001 52633946 36006.526469260257 36083.294111285016 24 0 23 276 4324
848	67546 7563 715668 52633946 36003.98309013449 36083.294111285016 192 16384 3145728 303562752 6.3827508985856e+14
849	75109 13167 1788920 67171554 36006.585874150831 36112.401854134646 334 16384 5472256 916602880 3.3489296136602e+15
855	88276 824 2925467 66464910 36008.755491141727 36110.736809379126 24 0 23 276 4324
856	89100 7547 2186474 66464910 36007.36505923161 36110.736809379126 192 16384 3145728 303562752 6.3827508985856e+14
857	96647 11890 3255076 57634458 36009.3895451008 36093.016129961365 303 16384 4964352 754581504 2.5014598201508e+15
863	108537 824 3420158 72656571 36009.611596559004 36125.832325322132 24 0 23 276 4324
864	109361 7756 1984007 72656571 36006.996800279018 36125.832325322132 197 16384 3227648 319537152 6.8931406528512e+14
865	117117 12580 3450531 48889317 36009.656806173318 36076.552490196819 318 16384 5210112 831012864 2.8909851681751e+15
871	129697 828 5141360 61740971 36012.190960635829 36101.193123104359 24 0 23 276 4324
872	130525 7973 2309803 61740971 36007.662430216087 36101.193123104359 202 16384 3309568 335921152 7.4300384083968e+14
873	138498 8938 6994615 80114194 36014.854334926439 36301.044343645498 226 16384 3702784 420265984 1.0397313201603e+15
879	147436 825 6750968 78354354 36014.521858088204 36157.312202070069 24 0 23 276 4324
880	148261 7573 5016450 78354354 36012.002020121386 36157.312202070069 192 16384 3145728 303562752 6.3827508985856e+14
881	155834 7296 6784372 80125114 36014.56706570147 36301.069998227559 185 16384 3031040 281886720 5.7114609319936e+14
887	163130 827 10280933 76119268 36019.777539019989 36137.816763869064 24 0 23 276 4324
888	163957 7890 1884261 76119268 36006.793427988883 36137.816763869064 200 16384 3276800 329318400 7.212055396352e+14
889	171847 2484 13148379 58837139 36023.963550649956 36095.46418016158 64 16384 1048576 34078720 24008867184640
895	174331 823 4630932 78556685 36011.439993311698 36159.395623640152 24 0 23 276 4324
896	175154 8212 2449424 78556685 36007.880756418872 36159.395623640152 208 16384 3407872 356122624 8.1102511695462e+14
897	183366 1774 6472388 78350777 36014.122574939856 36157.304798645099 46 16384 753664 17711104 8995540566016
903	185140 824 4509356 78102627 36011.272191263391 36155.887664391296 24 0 23 276 4324
904	185964 7572 3294582 78102627 36009.442867239422 36155.887664391296 192 16384 3145728 303562752 6.3827508985856e+14
905	193536 1430 27435304 78287126 36044.322526216814 36157.138952401638 37 16384 606208 11517952 4717753139200
911	194966 815 632643 45272433 36003.503884889187 36070.911090025347 24 0 23 276 4324
912	195781 7474 604606 45272433 36003.414445655967 36070.911090025347 192 16384 3145728 303562752 6.3827508985856e+14
913	203255 20248 658530 74222056 36003.602251310908 36130.786687029355 515 16384 8437760 2176942080 1.2257565542973e+16
919	223503 824 1158234 78985709 36004.989312178262 36160.810061955482 24 0 23 276 4324
920	224327 7539 530963 78985709 36002.83759246339 36160.810061955482 192 16384 3145728 303562752 6.3827508985856e+14
921	231866 14219 1223612 69804513 36005.097615992273 36118.706699707729 362 16384 5931008 1076477952 4.2622785683456e+15
927	246085 830 12041937 77597964 36022.367436242265 36153.585503818235 24 0 23 276 4324
928	246915 7893 905012 77597964 36004.194292395753 36153.585503818235 200 16384 3276800 329318400 7.212055396352e+14
929	254808 4722 12130118 54331829 36022.459707714901 36086.493575043847 120 16384 1966080 118947840 1.5655692664832e+14
935	259530 825 7820188 76155127 36016.11972797878 36138.281421183099 24 0 23 276 4324
936	260355 7703 1411321 76155127 36005.515270202189 36138.281421183099 195 16384 3194880 313098240 6.6858413719552e+14
937	268058 1845 7874832 66413166 36016.19879678072 36110.644079308604 48 16384 786432 19267584 10206989778944
943	269903 828 3651236 80302238 36009.91960732077 36302.660899292135 24 0 23 276 4324
944	270731 8345 2738959 80302238 36008.450982079692 36302.660899292135 211 16384 3457024 366444544 8.4653966465434e+14
945	279076 2478 3832637 77188211 36010.12632328009 36152.338400143257 64 16384 1048576 34078720 24008867184640
951	281554 827 9965586 80232256 36019.314440438505 36302.515513041527 24 0 23 276 4324
952	282381 9299 1344705 80232256 36005.341442050592 36302.515513041527 235 16384 3850240 454328320 1.1686632855962e+15
953	291680 461 42255946 67231535 36066.36082541627 36112.526441236143 12 16384 196608 1277952 174483046400
959	292141 826 4896229 70065125 36011.817952389916 36119.428565151948 24 0 23 276 4324
960	292967 8179 3851573 70135670 36010.168503336336 36119.605624371786 207 16384 3391488 352714752 7.9941152538624e+14
961	301146 811 42105286 71709310 36066.149522694335 36123.485987024382 21 16384 344064 3784704 888789794816
967	301957 826 7331234 75493376 36015.364847530407 36134.623928152814 24 0 23 276 4324
968	302783 7568 6501737 75493376 36014.158824688796 36134.623928152814 192 16384 3145728 303562752 6.3827508985856e+14
969	310351 3717 9050932 36796885 36018.022907707472 36057.630957218515 95 16384 1556480 74711040 77932181585920
975	314068 826 9361685 74638671 36018.431430114458 36131.603581353209 24 0 23 276 4324
976	314894 8213 5353313 74638671 36012.469865709959 36131.603581353209 208 16384 3407872 356122624 8.1102511695462e+14
977	323107 1471 11192875 74944779 36021.104173265432 36132.68020798147 38 16384 622592 12140544 5105373937664
983	324578 827 15136695 75902776 36026.819806630588 36136.830213974943 24 0 23 276 4324
984	325405 8212 2745785 75902776 36008.463347016576 36136.830213974943 208 16384 3407872 356122624 8.1102511695462e+14
991	333617 823 3070307 52442266 36009.103008736185 36082.944602706747 24 0 23 276 4324
992	334440 7546 1422889 52442266 36005.549621629457 36082.944602706747 192 16384 3145728 303562752 6.3827508985856e+14
993	341986 8880 4339597 77366494 36011.041763806751 36152.90482202174 226 16384 3702784 420265984 1.0397313201603e+15
999	350866 823 5320664 41927713 36012.430623676779 36065.836222610036 24 0 23 276 4324