file 3033897 1530037526                                         
version 2
run Test-20-20170629-12:57:41-3357
attr configname Test
attr datetime 20170629-12:57:41
attr experiment "\"Simulation Test\""
attr inifile BasicConfig.ini
attr iterationvars ""
attr iterationvars2 $repetition=20
attr measurement "\"Peers: $peers, Rate: $rate\""
attr network BasicTopology
attr processid 3357
attr repetition 20
attr replication #20
attr resultdir results
attr runnumber 20
attr seedset 20
vector 1  BasicTopology  EnterSwarm:vector  ETV
attr "" ""
attr source SwarmManager_EnterSwarm
attr title "Enter Swarm Time, vector"
1	93384 2600 259435620 259436851 259200 259201 100 259200 259201 25920099 6718515321699
vector 3  BasicTopology  SwarmEmittedPeerId:vector  ETV
attr "" ""
attr source SwarmManager_EmittedPeerId
attr title "Peer Swarm Signal Emitted, vector"
3	95984 2202 259435620 259436851 259200 259201 100 6 105 5550 391350
vector 9  BasicTopology.peer[1].bitTorrentApp.bitTorrentClient  DownloadComplete_Test:vector  ETV
attr source BitTorrentClient_DownloadComplete_Test
attr title "Descargas completas (prueba), vector"
9	116303 75 259436753 1074742640 259201 260290.144138644537 2 259201 260290.14413864 519491.14413864 134936117536.71
vector 0  BasicTopology  DownloadComplete_Test:vector  ETV
attr source BitTorrentClient_DownloadComplete_Test
attr title "Tiempo de desacarga (prueba), vector"
0	86040 7344 259436753 1231179434 259201 261903.476688660061 198 259201 261903.47668866 51406375.801799 13346600440445
vector 11  BasicTopology.peer[2].bitTorrentApp.bitTorrentClient  DownloadComplete_Test:vector  ETV
attr source BitTorrentClient_DownloadComplete_Test
attr title "Descargas completas (prueba), vector"
11	116378 77 259436754 1217923717 259201 260582.629649374153 2 259201 260582.62964937 519783.62964937 135088465275.98
vector 13  BasicTopology.peer[3].bitTorrentApp.bitTorrentClient  DownloadComplete_Test:vector  ETV
attr source BitTorrentClient_DownloadComplete_Test
attr title "Descargas completas (prueba), vector"
13	116455 77 259436755 1219155602 259201 260627.445458635683 2 259201 260627.44545864 519828.44545864 135111823727.3
vector 15  BasicTopology.peer[4].bitTorrentApp.bitTorrentClient  DownloadComplete_Test:vector  ETV
attr source BitTorrentClient_DownloadComplete_Test
attr title "Descargas completas (prueba), vector"
15	116532 75 259436756 854000396 259201 260128.86562852147 2 259201 260128.86562852 519329.86562852 134852185134.18
vector 17  BasicTopology.peer[5].bitTorrentApp.bitTorrentClient  DownloadComplete_Test:vector  ETV
attr source BitTorrentClient_DownloadComplete_Test
attr title "Descargas completas (prueba), vector"
17	116607 77 259436757 1017767100 259201 260254.689350031781 2 259201 260254.68935003 519455.68935003 134917661729.68
vector 19  BasicTopology.peer[6].bitTorrentApp.bitTorrentClient  DownloadComplete_Test:vector  ETV
attr source BitTorrentClient_DownloadComplete_Test
attr title "Descargas completas (prueba), vector"
19	116684 77 259436758 1210442997 259201 260457.167761306608 2 259201 260457.16776131 519658.16776131 135023094639.24
vector 21  BasicTopology.peer[7].bitTorrentApp.bitTorrentClient  DownloadComplete_Test:vector  ETV
attr source BitTorrentClient_DownloadComplete_Test
attr title "Descargas completas (prueba), vector"
21	116761 75 259436759 852885789 259201 260127.655864302451 2 259201 260127.6558643 519328.6558643 134851555746.46
vector 23  BasicTopology.peer[8].bitTorrentApp.bitTorrentClient  DownloadComplete_Test:vector  ETV
attr source BitTorrentClient_DownloadComplete_Test
attr title "Descargas completas (prueba), vector"
23	116836 77 259436760 1225977465 259201 261024.376188505679 2 259201 261024.37618851 520225.37618851 135318883365.6
vector 25  BasicTopology.peer[9].bitTorrentApp.bitTorrentClient  DownloadComplete_Test:vector  ETV
attr source BitTorrentClient_DownloadComplete_Test
attr title "Descargas completas (prueba), vector"
25	116913 77 259436761 1203295816 259201 260429.926962591639 2 259201 260429.92696259 519630.92696259 135008905258.74
vector 27  BasicTopology.peer[10].bitTorrentApp.bitTorrentClient  DownloadComplete_Test:vector  ETV
attr source BitTorrentClient_DownloadComplete_Test
attr title "Descargas completas (prueba), vector"
27	116990 76 259436762 834136756 259201 260109.581978890706 2 259201 260109.58197889 519310.58197889 134842153038.23
vector 29  BasicTopology.peer[11].bitTorrentApp.bitTorrentClient  DownloadComplete_Test:vector  ETV
attr source BitTorrentClient_DownloadComplete_Test
attr title "Descargas completas (prueba), vector"
29	117066 76 259436763 962490785 259201 260222.877866348054 2 259201 260222.87786635 519423.87786635 134901104566.05
vector 31  BasicTopology.peer[12].bitTorrentApp.bitTorrentClient  DownloadComplete_Test:vector  ETV
attr source BitTorrentClient_DownloadComplete_Test
attr title "Descargas completas (prueba), vector"
31	117142 76 259436764 634228174 259201 259555.001816633579 2 259201 259555.00181663 518756.00181663 134553957369.03
vector 33  BasicTopology.peer[13].bitTorrentApp.bitTorrentClient  DownloadComplete_Test:vector  ETV
attr source BitTorrentClient_DownloadComplete_Test
attr title "Descargas completas (prueba), vector"
33	117218 77 259436765 1218330584 259201 260588.074489273974 2 259201 260588.07448927 519789.07448927 135091302967.03
vector 35  BasicTopology.peer[14].bitTorrentApp.bitTorrentClient  DownloadComplete_Test:vector  ETV
attr source BitTorrentClient_DownloadComplete_Test
attr title "Descargas completas (prueba), vector"
35	117295 75 259436766 698887912 259201 259802.325065100073 2 259201 259802.3250651 519003.3250651 134682406510.23
vector 37  BasicTopology.peer[15].bitTorrentApp.bitTorrentClient  DownloadComplete_Test:vector  ETV
attr source BitTorrentClient_DownloadComplete_Test
attr title "Descargas completas (prueba), vector"
37	117370 76 259436767 635240329 259201 259555.954626221476 2 259201 259555.95462622 518756.95462622 134554451982.93
vector 39  BasicTopology.peer[16].bitTorrentApp.bitTorrentClient  DownloadComplete_Test:vector  ETV
attr source BitTorrentClient_DownloadComplete_Test
attr title "Descargas completas (prueba), vector"
39	117446 77 259436768 1225043736 259201 261002.192303560911 2 259201 261002.19230356 520203.19230356 135307302788.26
vector 41  BasicTopology.peer[17].bitTorrentApp.bitTorrentClient  DownloadComplete_Test:vector  ETV
attr source BitTorrentClient_DownloadComplete_Test
attr title "Descargas completas (prueba), vector"
41	117523 77 259436769 1204119015 259201 260432.135774109987 2 259201 260432.13577411 519633.13577411 135010055744.86
vector 43  BasicTopology.peer[18].bitTorrentApp.bitTorrentClient  DownloadComplete_Test:vector  ETV
attr source BitTorrentClient_DownloadComplete_Test
attr title "Descargas completas (prueba), vector"
43	117600 74 259436770 579152962 259201 259507.7225661826 2 259201 259507.72256618 518708.72256618 134529416472.49
vector 45  BasicTopology.peer[19].bitTorrentApp.bitTorrentClient  DownloadComplete_Test:vector  ETV
attr source BitTorrentClient_DownloadComplete_Test
attr title "Descargas completas (prueba), vector"
45	117674 76 259436771 574725011 259201 259504.800720216306 2 259201 259504.80072022 518705.80072022 134527899997.84
vector 47  BasicTopology.peer[20].bitTorrentApp.bitTorrentClient  DownloadComplete_Test:vector  ETV
attr source BitTorrentClient_DownloadComplete_Test
attr title "Descargas completas (prueba), vector"
47	117750 76 259436772 559472534 259201 259486.308301612777 2 259201 259486.30830161 518687.30830161 134518302597
vector 49  BasicTopology.peer[21].bitTorrentApp.bitTorrentClient  DownloadComplete_Test:vector  ETV
attr source BitTorrentClient_DownloadComplete_Test
attr title "Descargas completas (prueba), vector"
49	117826 77 259436773 1223858308 259201 260884.385757470776 2 259201 260884.38575747 520085.38575747 135245821133.05
vector 51  BasicTopology.peer[22].bitTorrentApp.bitTorrentClient  DownloadComplete_Test:vector  ETV
attr source BitTorrentClient_DownloadComplete_Test
attr title "Descargas completas (prueba), vector"
51	117903 77 259436774 1193994043 259201 260413.198801774316 2 259201 260413.19880177 519614.19880177 135000192511.17
vector 53  BasicTopology.peer[23].bitTorrentApp.bitTorrentClient  DownloadComplete_Test:vector  ETV
attr source BitTorrentClient_DownloadComplete_Test
attr title "Descargas completas (prueba), vector"
53	117980 76 259436775 707768183 259201 259807.816578185494 2 259201 259807.81657819 519008.81657819 134685259956.13
vector 55  BasicTopology.peer[24].bitTorrentApp.bitTorrentClient  DownloadComplete_Test:vector  ETV
attr source BitTorrentClient_DownloadComplete_Test
attr title "Descargas completas (prueba), vector"
55	118056 77 259436776 1191252620 259201 260409.630045238375 2 259201 260409.63004524 519610.63004524 134998333821.3
vector 57  BasicTopology.peer[25].bitTorrentApp.bitTorrentClient  DownloadComplete_Test:vector  ETV
attr source BitTorrentClient_DownloadComplete_Test
attr title "Descargas completas (prueba), vector"
57	118133 77 259436777 1217802762 259201 260581.512907566331 2 259201 260581.51290757 519782.51290757 135087883270.2
vector 59  BasicTopology.peer[26].bitTorrentApp.bitTorrentClient  DownloadComplete_Test:vector  ETV
attr source BitTorrentClient_DownloadComplete_Test
attr title "Descargas completas (prueba), vector"
59	118210 76 259436778 700496488 259201 259803.372698815698 2 259201 259803.37269882 519004.37269882 134682950866.68
vector 61  BasicTopology.peer[27].bitTorrentApp.bitTorrentClient  DownloadComplete_Test:vector  ETV
attr source BitTorrentClient_DownloadComplete_Test
attr title "Descargas completas (prueba), vector"
61	118286 76 259436779 719665480 259201 259823.253784615714 2 259201 259823.25378462 519024.25378462 134693281608.23
vector 63  BasicTopology.peer[28].bitTorrentApp.bitTorrentClient  DownloadComplete_Test:vector  ETV
attr source BitTorrentClient_DownloadComplete_Test
attr title "Descargas completas (prueba), vector"
63	118362 77 259436780 1215190066 259201 260517.890599906667 2 259201 260517.89059991 519718.89059991 135054729723.63
vector 65  BasicTopology.peer[29].bitTorrentApp.bitTorrentClient  DownloadComplete_Test:vector  ETV
attr source BitTorrentClient_DownloadComplete_Test
attr title "Descargas completas (prueba), vector"
65	118439 77 259436781 1044164818 259201 260269.623815475785 2 259201 260269.62381548 519470.62381548 134925435482.05
vector 67  BasicTopology.peer[30].bitTorrentApp.bitTorrentClient  DownloadComplete_Test:vector  ETV
attr source BitTorrentClient_DownloadComplete_Test
attr title "Descargas completas (prueba), vector"
67	118516 76 259436782 473071692 259201 259397.798708192694 2 259201 259397.79870819 518598.79870819 134472376375.65
vector 69  BasicTopology.peer[31].bitTorrentApp.bitTorrentClient  DownloadComplete_Test:vector  ETV
attr source BitTorrentClient_DownloadComplete_Test
attr title "Descargas completas (prueba), vector"
69	118592 76 259436783 470372162 259201 259395.469064664612 2 259201 259395.46906466 518596.46906466 134471167772.27
vector 71  BasicTopology.peer[32].bitTorrentApp.bitTorrentClient  DownloadComplete_Test:vector  ETV
attr source BitTorrentClient_DownloadComplete_Test
attr title "Descargas completas (prueba), vector"
71	118668 76 259436784 846534339 259201 260120.268288543928 2 259201 260120.26828854 519321.26828854 134847712375.5
vector 73  BasicTopology.peer[33].bitTorrentApp.bitTorrentClient  DownloadComplete_Test:vector  ETV
attr source BitTorrentClient_DownloadComplete_Test
attr title "Descargas completas (prueba), vector"
73	118744 77 259436785 1203953434 259201 260431.770312920561 2 259201 260431.77031292 519632.77031292 135009865389.32
vector 75  BasicTopology.peer[34].bitTorrentApp.bitTorrentClient  DownloadComplete_Test:vector  ETV
attr source BitTorrentClient_DownloadComplete_Test
attr title "Descargas completas (prueba), vector"
75	118821 77 259436786 1211306662 259201 260470.166173772533 2 259201 260470.16617377 519671.16617377 135029865867.59
vector 77  BasicTopology.peer[35].bitTorrentApp.bitTorrentClient  DownloadComplete_Test:vector  ETV
attr source BitTorrentClient_DownloadComplete_Test
attr title "Descargas completas (prueba), vector"
77	118898 76 259436787 728759518 259201 259844.068266966604 2 259201 259844.06826697 519045.06826697 134704098214.53
vector 79  BasicTopology.peer[36].bitTorrentApp.bitTorrentClient  DownloadComplete_Test:vector  ETV
attr source BitTorrentClient_DownloadComplete_Test
attr title "Descargas completas (prueba), vector"
79	118974 75 259436788 1197364246 259201 260418.64456880186 2 259201 260418.6445688 519619.6445688 135003028840.05
vector 81  BasicTopology.peer[37].bitTorrentApp.bitTorrentClient  DownloadComplete_Test:vector  ETV
attr source BitTorrentClient_DownloadComplete_Test
attr title "Descargas completas (prueba), vector"
81	119049 76 259436789 573455878 259201 259503.884516138553 2 259201 259503.88451614 518704.88451614 134527424479.97
vector 83  BasicTopology.peer[38].bitTorrentApp.bitTorrentClient  DownloadComplete_Test:vector  ETV
attr source BitTorrentClient_DownloadComplete_Test
attr title "Descargas completas (prueba), vector"
83	119125 77 259436790 1041586346 259201 260268.142978121863 2 259201 260268.14297812 519469.14297812 134924664650.28
vector 85  BasicTopology.peer[39].bitTorrentApp.bitTorrentClient  DownloadComplete_Test:vector  ETV
attr source BitTorrentClient_DownloadComplete_Test
attr title "Descargas completas (prueba), vector"
85	119202 74 259436791 467281999 259201 259392.617087001176 2 259201 259392.617087 518593.617087 134469688200.24
vector 87  BasicTopology.peer[40].bitTorrentApp.bitTorrentClient  DownloadComplete_Test:vector  ETV
attr source BitTorrentClient_DownloadComplete_Test
attr title "Descargas completas (prueba), vector"
87	119276 76 259436792 730470261 259201 259849.612865930347 2 259201 259849.61286593 519050.61286593 134706979707.57
vector 89  BasicTopology.peer[41].bitTorrentApp.bitTorrentClient  DownloadComplete_Test:vector  ETV
attr source BitTorrentClient_DownloadComplete_Test
attr title "Descargas completas (prueba), vector"
89	119352 76 259436793 597421689 259201 259520.377948013036 2 259201 259520.37794801 518721.37794801 134535984971.28
vector 91  BasicTopology.peer[42].bitTorrentApp.bitTorrentClient  DownloadComplete_Test:vector  ETV
attr source BitTorrentClient_DownloadComplete_Test
attr title "Descargas completas (prueba), vector"
91	119428 76 259436794 508487153 259201 259431.755112175209 2 259201 259431.75511218 518632.75511218 134489993961.59
vector 93  BasicTopology.peer[43].bitTorrentApp.bitTorrentClient  DownloadComplete_Test:vector  ETV
attr source BitTorrentClient_DownloadComplete_Test
attr title "Descargas completas (prueba), vector"
93	119504 77 259436795 1079366164 259201 260293.571944441204 2 259201 260293.57194444 519494.57194444 134937901996.6
vector 95  BasicTopology.peer[44].bitTorrentApp.bitTorrentClient  DownloadComplete_Test:vector  ETV
attr source BitTorrentClient_DownloadComplete_Test
attr title "Descargas completas (prueba), vector"
95	119581 77 259436796 1050091565 259201 260273.285813564327 2 259201 260273.28581356 519474.28581356 134927341709.19
vector 97  BasicTopology.peer[45].bitTorrentApp.bitTorrentClient  DownloadComplete_Test:vector  ETV
attr source BitTorrentClient_DownloadComplete_Test
attr title "Descargas completas (prueba), vector"
97	119658 75 259436797 704784517 259201 259805.85363172969 2 259201 259805.85363173 519006.85363173 134684239982.31
vector 99  BasicTopology.peer[46].bitTorrentApp.bitTorrentClient  DownloadComplete_Test:vector  ETV
attr source BitTorrentClient_DownloadComplete_Test
attr title "Descargas completas (prueba), vector"
99	119733 75 259436798 719666223 259201 259823.25502778772 2 259201 259823.25502779 519024.25502779 134693282254.24
vector 101  BasicTopology.peer[47].bitTorrentApp.bitTorrentClient  DownloadComplete_Test:vector  ETV
attr source BitTorrentClient_DownloadComplete_Test
attr title "Descargas completas (prueba), vector"
101	119808 78 259436799 679552327 259201 259619.242267118021 2 259201 259619.24226712 518820.24226712 134587309356.35
vector 103  BasicTopology.peer[48].bitTorrentApp.bitTorrentClient  DownloadComplete_Test:vector  ETV
attr source BitTorrentClient_DownloadComplete_Test
attr title "Descargas completas (prueba), vector"
103	119886 78 259436800 730285036 259201 259848.635894808521 2 259201 259848.63589481 519049.63589481 134706471977.39
vector 105  BasicTopology.peer[49].bitTorrentApp.bitTorrentClient  DownloadComplete_Test:vector  ETV
attr source BitTorrentClient_DownloadComplete_Test
attr title "Descargas completas (prueba), vector"
105	119964 75 259436801 561175479 259201 259489.116932306 2 259201 259489.11693231 518690.11693231 134519760207.31
vector 107  BasicTopology.peer[50].bitTorrentApp.bitTorrentClient  DownloadComplete_Test:vector  ETV
attr source BitTorrentClient_DownloadComplete_Test
attr title "Descargas completas (prueba), vector"
107	120039 77 259436802 637845085 259201 259558.32429744276 2 259201 259558.32429744 518759.32429744 134555682113.1
vector 109  BasicTopology.peer[51].bitTorrentApp.bitTorrentClient  DownloadComplete_Test:vector  ETV
attr source BitTorrentClient_DownloadComplete_Test
attr title "Descargas completas (prueba), vector"
109	120116 78 259436803 1060298280 259201 260280.01561472725 2 259201 260280.01561473 519481.01561473 134930844929.4
vector 111  BasicTopology.peer[52].bitTorrentApp.bitTorrentClient  DownloadComplete_Test:vector  ETV
attr source BitTorrentClient_DownloadComplete_Test
attr title "Descargas completas (prueba), vector"
111	120194 78 259436804 649561390 259201 259574.392749622545 2 259201 259574.39274962 518775.39274962 134564023772.33
vector 113  BasicTopology.peer[53].bitTorrentApp.bitTorrentClient  DownloadComplete_Test:vector  ETV
attr source BitTorrentClient_DownloadComplete_Test
attr title "Descargas completas (prueba), vector"
113	120272 78 259436805 732525826 259201 259853.658829482325 2 259201 259853.65882948 519054.65882948 134709082408.07
vector 115  BasicTopology.peer[54].bitTorrentApp.bitTorrentClient  DownloadComplete_Test:vector  ETV
attr source BitTorrentClient_DownloadComplete_Test
attr title "Descargas completas (prueba), vector"
115	120350 78 259436806 836032387 259201 260110.891679080088 2 259201 260110.89167908 519311.89167908 134842834371.09
vector 117  BasicTopology.peer[55].bitTorrentApp.bitTorrentClient  DownloadComplete_Test:vector  ETV
attr source BitTorrentClient_DownloadComplete_Test
attr title "Descargas completas (prueba), vector"
117	120428 78 259436807 573657083 259201 259504.018166907213 2 259201 259504.01816691 518705.01816691 134527493845.77
vector 119  BasicTopology.peer[56].bitTorrentApp.bitTorrentClient  DownloadComplete_Test:vector  ETV
attr source BitTorrentClient_DownloadComplete_Test
attr title "Descargas completas (prueba), vector"
119	120506 79 259436808 1212994002 259201 260492.751660337026 2 259201 260492.75166034 519693.75166034 135041632068.58
vector 121  BasicTopology.peer[57].bitTorrentApp.bitTorrentClient  DownloadComplete_Test:vector  ETV
attr source BitTorrentClient_DownloadComplete_Test
attr title "Descargas completas (prueba), vector"
121	120585 79 259436809 1222219413 259201 260792.411424616576 2 259201 260792.41142462 519993.41142462 135197840257.67
vector 123  BasicTopology.peer[58].bitTorrentApp.bitTorrentClient  DownloadComplete_Test:vector  ETV
attr source BitTorrentClient_DownloadComplete_Test
attr title "Descargas completas (prueba), vector"
123	120664 78 259436810 484633634 259201 259408.216427990474 2 259201 259408.21642799 518609.21642799 134477781151.35
vector 125  BasicTopology.peer[59].bitTorrentApp.bitTorrentClient  DownloadComplete_Test:vector  ETV
attr source BitTorrentClient_DownloadComplete_Test
attr title "Descargas completas (prueba), vector"
125	120742 79 259436811 1208013515 259201 260441.459646568596 2 259201 260441.45964657 519642.45964657 135014912303.84
vector 127  BasicTopology.peer[60].bitTorrentApp.bitTorrentClient  DownloadComplete_Test:vector  ETV
attr source BitTorrentClient_DownloadComplete_Test
attr title "Descargas completas (prueba), vector"
127	120821 78 259436812 998608853 259201 260243.664673638024 2 259201 260243.66467364 519444.66467364 134911923403.77
vector 129  BasicTopology.peer[61].bitTorrentApp.bitTorrentClient  DownloadComplete_Test:vector  ETV
attr source BitTorrentClient_DownloadComplete_Test
attr title "Descargas completas (prueba), vector"
129	120899 79 259436813 1025255223 259201 260258.881970588757 2 259201 260258.88197059 519459.88197059 134919844045.58
vector 131  BasicTopology.peer[62].bitTorrentApp.bitTorrentClient  DownloadComplete_Test:vector  ETV
attr source BitTorrentClient_DownloadComplete_Test
attr title "Descargas completas (prueba), vector"
131	120978 78 259436814 734153099 259201 259862.089040408337 2 259201 259862.08904041 519063.08904041 134713463721.45
vector 133  BasicTopology.peer[63].bitTorrentApp.bitTorrentClient  DownloadComplete_Test:vector  ETV
attr source BitTorrentClient_DownloadComplete_Test
attr title "Descargas completas (prueba), vector"
133	121056 79 259436815 1231179434 259201 261903.476688660061 2 259201 261903.47668866 521104.47668866 135778589502.61
vector 135  BasicTopology.peer[64].bitTorrentApp.bitTorrentClient  DownloadComplete_Test:vector  ETV
attr source BitTorrentClient_DownloadComplete_Test
attr title "Descargas completas (prueba), vector"
135	121135 79 259436816 1197479592 259201 260418.847572886175 2 259201 260418.84757289 519619.84757289 135003134572.19
vector 137  BasicTopology.peer[65].bitTorrentApp.bitTorrentClient  DownloadComplete_Test:vector  ETV
attr source BitTorrentClient_DownloadComplete_Test
attr title "Descargas completas (prueba), vector"
137	121214 78 259436817 1202168293 259201 260427.227177801001 2 259201 260427.2271778 519628.2271778 135007499056.52
vector 139  BasicTopology.peer[66].bitTorrentApp.bitTorrentClient  DownloadComplete_Test:vector  ETV
attr source BitTorrentClient_DownloadComplete_Test
attr title "Descargas completas (prueba), vector"
139	121292 77 259436818 706375350 259201 259806.824405702818 2 259201 259806.8244057 519007.8244057 134684744408.77
vector 143  BasicTopology.peer[68].bitTorrentApp.bitTorrentClient  DownloadComplete_Test:vector  ETV
attr source BitTorrentClient_DownloadComplete_Test
attr title "Descargas completas (prueba), vector"
143	121448 78 259436820 730303290 259201 259848.664908969601 2 259201 259848.66490897 519049.66490897 134706487055.97
vector 145  BasicTopology.peer[69].bitTorrentApp.bitTorrentClient  DownloadComplete_Test:vector  ETV
attr source BitTorrentClient_DownloadComplete_Test
attr title "Descargas completas (prueba), vector"
145	121526 79 259436821 1218874185 259201 260605.693267220852 2 259201 260605.69326722 519806.69326722 135100485764.29
vector 147  BasicTopology.peer[70].bitTorrentApp.bitTorrentClient  DownloadComplete_Test:vector  ETV
attr source BitTorrentClient_DownloadComplete_Test
attr title "Descargas completas (prueba), vector"
147	121605 78 259436822 827857700 259201 260104.389203892797 2 259201 260104.38920389 519305.38920389 134839451684.13
vector 149  BasicTopology.peer[71].bitTorrentApp.bitTorrentClient  DownloadComplete_Test:vector  ETV
attr source BitTorrentClient_DownloadComplete_Test
attr title "Descargas completas (prueba), vector"
149	121683 78 259436823 455725948 259201 259382.539209973899 2 259201 259382.53920997 518583.53920997 134464460048.01
vector 151  BasicTopology.peer[72].bitTorrentApp.bitTorrentClient  DownloadComplete_Test:vector  ETV
attr source BitTorrentClient_DownloadComplete_Test
attr title "Descargas completas (prueba), vector"
151	121761 78 259436824 497558164 259201 259420.364546262019 2 259201 259420.36454626 518621.36454626 134484083942.31
vector 153  BasicTopology.peer[73].bitTorrentApp.bitTorrentClient  DownloadComplete_Test:vector  ETV
attr source BitTorrentClient_DownloadComplete_Test
attr title "Descargas completas (prueba), vector"
153	121839 78 259436825 633666233 259201 259554.503530472132 2 259201 259554.50353047 518755.50353047 134553698703.95
vector 157  BasicTopology.peer[75].bitTorrentApp.bitTorrentClient  DownloadComplete_Test:vector  ETV
attr source BitTorrentClient_DownloadComplete_Test
attr title "Descargas completas (prueba), vector"
157	121995 78 259436827 720420366 259201 259824.498868738448 2 259201 259824.49886874 519025.49886874 134693928613.39
vector 159  BasicTopology.peer[76].bitTorrentApp.bitTorrentClient  DownloadComplete_Test:vector  ETV
attr source BitTorrentClient_DownloadComplete_Test
attr title "Descargas completas (prueba), vector"
159	122073 78 259436828 627648035 259201 259548.600994448495 2 259201 259548.60099445 518749.60099445 134550634679.18
vector 161  BasicTopology.peer[77].bitTorrentApp.bitTorrentClient  DownloadComplete_Test:vector  ETV
attr source BitTorrentClient_DownloadComplete_Test
attr title "Descargas completas (prueba), vector"
161	122151 78 259436829 718855901 259201 259821.553332830958 2 259201 259821.55333283 519022.55333283 134692397977.28
vector 163  BasicTopology.peer[78].bitTorrentApp.bitTorrentClient  DownloadComplete_Test:vector  ETV
attr source BitTorrentClient_DownloadComplete_Test
attr title "Descargas completas (prueba), vector"
163	122229 78 259436830 626407034 259201 259547.249671154376 2 259201 259547.24967115 518748.24967115 134549933212.86
vector 165  BasicTopology.peer[79].bitTorrentApp.bitTorrentClient  DownloadComplete_Test:vector  ETV
attr source BitTorrentClient_DownloadComplete_Test
attr title "Descargas completas (prueba), vector"
165	122307 79 259436831 1204076971 259201 260432.080338861424 2 259201 260432.08033886 519633.08033886 135010026870.63
vector 167  BasicTopology.peer[80].bitTorrentApp.bitTorrentClient  DownloadComplete_Test:vector  ETV
attr source BitTorrentClient_DownloadComplete_Test
attr title "Descargas completas (prueba), vector"
167	122386 77 259436832 704163830 259201 259805.421850497614 2 259201 259805.4218505 519006.4218505 134684015623.92
vector 169  BasicTopology.peer[81].bitTorrentApp.bitTorrentClient  DownloadComplete_Test:vector  ETV
attr source BitTorrentClient_DownloadComplete_Test
attr title "Descargas completas (prueba), vector"
169	122463 78 259436833 559472343 259201 259486.308147559606 2 259201 259486.30814756 518687.30814756 134518302517.05
vector 171  BasicTopology.peer[82].bitTorrentApp.bitTorrentClient  DownloadComplete_Test:vector  ETV
attr source BitTorrentClient_DownloadComplete_Test
attr title "Descargas completas (prueba), vector"
171	122541 78 259436834 646447239 259201 259569.839266987978 2 259201 259569.83926699 518770.83926699 134561659858.09
vector 173  BasicTopology.peer[83].bitTorrentApp.bitTorrentClient  DownloadComplete_Test:vector  ETV
attr source BitTorrentClient_DownloadComplete_Test
attr title "Descargas completas (prueba), vector"
173	122619 79 259436835 1220222317 259201 260677.003817827433 2 259201 260677.00381783 519878.00381783 135137658720.44
vector 175  BasicTopology.peer[84].bitTorrentApp.bitTorrentClient  DownloadComplete_Test:vector  ETV
attr source BitTorrentClient_DownloadComplete_Test
attr title "Descargas completas (prueba), vector"
175	122698 78 259436836 1091371856 259201 260303.61656723175 2 259201 260303.61656723 519504.61656723 134943131198.98
vector 177  BasicTopology.peer[85].bitTorrentApp.bitTorrentClient  DownloadComplete_Test:vector  ETV
attr source BitTorrentClient_DownloadComplete_Test
attr title "Descargas completas (prueba), vector"
177	122776 78 259436837 729734833 259201 259846.771605149158 2 259201 259846.77160515 519047.77160515 134705503114.62
vector 179  BasicTopology.peer[86].bitTorrentApp.bitTorrentClient  DownloadComplete_Test:vector  ETV
attr source BitTorrentClient_DownloadComplete_Test
attr title "Descargas completas (prueba), vector"
179	122854 77 259436838 733626369 259201 259859.935211596672 2 259201 259859.9352116 519060.9352116 134712344329.18
vector 181  BasicTopology.peer[87].bitTorrentApp.bitTorrentClient  DownloadComplete_Test:vector  ETV
attr source BitTorrentClient_DownloadComplete_Test
attr title "Descargas completas (prueba), vector"
181	122931 78 259436839 636964830 259201 259557.728509077649 2 259201 259557.72850908 518758.72850908 134555372829.79
vector 183  BasicTopology.peer[88].bitTorrentApp.bitTorrentClient  DownloadComplete_Test:vector  ETV
attr source BitTorrentClient_DownloadComplete_Test
attr title "Descargas completas (prueba), vector"
183	123009 79 259436840 1052643494 259201 260274.912540282464 2 259201 260274.91254028 519475.91254028 134928188498.85
vector 185  BasicTopology.peer[89].bitTorrentApp.bitTorrentClient  DownloadComplete_Test:vector  ETV
attr source BitTorrentClient_DownloadComplete_Test
attr title "Descargas completas (prueba), vector"
185	123088 78 259436841 722560840 259201 259828.323678138028 2 259201 259828.32367814 519029.32367814 134695916186.39
vector 187  BasicTopology.peer[90].bitTorrentApp.bitTorrentClient  DownloadComplete_Test:vector  ETV
attr source BitTorrentClient_DownloadComplete_Test
attr title "Descargas completas (prueba), vector"
187	123166 78 259436842 1212151822 259201 260480.374781101906 2 259201 260480.3747811 519681.3747811 135035184047.1
vector 189  BasicTopology.peer[91].bitTorrentApp.bitTorrentClient  DownloadComplete_Test:vector  ETV
attr source BitTorrentClient_DownloadComplete_Test
attr title "Descargas completas (prueba), vector"
189	123244 79 259436843 1101444678 259201 260312.167193923058 2 259201 260312.16719392 519513.16719392 134947582790.2
vector 191  BasicTopology.peer[92].bitTorrentApp.bitTorrentClient  DownloadComplete_Test:vector  ETV
attr source BitTorrentClient_DownloadComplete_Test
attr title "Descargas completas (prueba), vector"
191	123323 78 259436844 648260050 259201 259572.248085045813 2 259201 259572.24808505 518773.24808505 134562910376.93
vector 193  BasicTopology.peer[93].bitTorrentApp.bitTorrentClient  DownloadComplete_Test:vector  ETV