file 3066881 1530037526                                         
version 2
run Test-22-20170629-12:57:53-3388
attr configname Test
attr datetime 20170629-12:57:53
attr experiment "\"Simulation Test\""
attr inifile BasicConfig.ini
attr iterationvars ""
attr iterationvars2 $repetition=22
attr measurement "\"Peers: $peers, Rate: $rate\""
attr network BasicTopology
attr processid 3388
attr repetition 22
attr replication #22
attr resultdir results
attr runnumber 22
attr seedset 22
vector 1  BasicTopology  EnterSwarm:vector  ETV
attr "" ""
attr source SwarmManager_EnterSwarm
attr title "Enter Swarm Time, vector"
1	92977 2600 259436548 259437778 259200 259201 100 259200 259201 25920099 6718515321699
vector 3  BasicTopology  SwarmEmittedPeerId:vector  ETV
attr "" ""
attr source SwarmManager_EmittedPeerId
attr title "Peer Swarm Signal Emitted, vector"
3	95577 2202 259436548 259437778 259200 259201 100 6 105 5550 391350
vector 9  BasicTopology.peer[1].bitTorrentApp.bitTorrentClient  DownloadComplete_Test:vector  ETV
attr source BitTorrentClient_DownloadComplete_Test
attr title "Descargas completas (prueba), vector"
9	115136 75 259437680 1358645507 259201 260809.942675041836 2 259201 260809.94267504 520010.94267504 135206984599.16
vector 0  BasicTopology  DownloadComplete_Test:vector  ETV
attr source BitTorrentClient_DownloadComplete_Test
attr title "Tiempo de desacarga (prueba), vector"
0	85592 7385 259437680 1401648854 259201 262803.493667196443 198 259201 262803.4936672 51439584.436794 13363901180517
vector 11  BasicTopology.peer[2].bitTorrentApp.bitTorrentClient  DownloadComplete_Test:vector  ETV
attr source BitTorrentClient_DownloadComplete_Test
attr title "Descargas completas (prueba), vector"
11	115211 77 259437681 1357692578 259201 260808.927961809365 2 259201 260808.92796181 520009.92796181 135206455305.59
vector 13  BasicTopology.peer[3].bitTorrentApp.bitTorrentClient  DownloadComplete_Test:vector  ETV
attr source BitTorrentClient_DownloadComplete_Test
attr title "Descargas completas (prueba), vector"
13	115288 76 259437682 1352029619 259201 260799.42728767233 2 259201 260799.42728767 520000.42728767 135201499674.58
vector 15  BasicTopology.peer[4].bitTorrentApp.bitTorrentClient  DownloadComplete_Test:vector  ETV
attr source BitTorrentClient_DownloadComplete_Test
attr title "Descargas completas (prueba), vector"
15	115364 76 259437683 1356488639 259201 260807.32603415805 2 259201 260807.32603416 520008.32603416 135205619714.09
vector 17  BasicTopology.peer[5].bitTorrentApp.bitTorrentClient  DownloadComplete_Test:vector  ETV
attr source BitTorrentClient_DownloadComplete_Test
attr title "Descargas completas (prueba), vector"
17	115440 77 259437684 1015554163 259201 260103.889287186279 2 259201 260103.88928719 519304.88928719 134839191623.32
vector 19  BasicTopology.peer[6].bitTorrentApp.bitTorrentClient  DownloadComplete_Test:vector  ETV
attr source BitTorrentClient_DownloadComplete_Test
attr title "Descargas completas (prueba), vector"
19	115517 77 259437685 1355985488 259201 260806.655192009926 2 259201 260806.65519201 520007.65519201 135205269793.44
vector 21  BasicTopology.peer[7].bitTorrentApp.bitTorrentClient  DownloadComplete_Test:vector  ETV
attr source BitTorrentClient_DownloadComplete_Test
attr title "Descargas completas (prueba), vector"
21	115594 76 259437686 309653952 259201 259349.054211455047 2 259201 259349.05421146 518550.05421146 134447090321.38
vector 23  BasicTopology.peer[8].bitTorrentApp.bitTorrentClient  DownloadComplete_Test:vector  ETV
attr source BitTorrentClient_DownloadComplete_Test
attr title "Descargas completas (prueba), vector"
23	115670 75 259437687 986907253 259201 260019.455863703964 2 259201 260019.4558637 519220.4558637 134795275828.65
vector 25  BasicTopology.peer[9].bitTorrentApp.bitTorrentClient  DownloadComplete_Test:vector  ETV
attr source BitTorrentClient_DownloadComplete_Test
attr title "Descargas completas (prueba), vector"
25	115745 75 259437688 963069497 259201 259999.105759301753 2 259201 259999.1057593 519200.1057593 134784693396.64
vector 27  BasicTopology.peer[10].bitTorrentApp.bitTorrentClient  DownloadComplete_Test:vector  ETV
attr source BitTorrentClient_DownloadComplete_Test
attr title "Descargas completas (prueba), vector"
27	115820 76 259437689 986877041 259201 260019.438279655885 2 259201 260019.43827966 519220.43827966 134795266684.27
vector 29  BasicTopology.peer[11].bitTorrentApp.bitTorrentClient  DownloadComplete_Test:vector  ETV
attr source BitTorrentClient_DownloadComplete_Test
attr title "Descargas completas (prueba), vector"
29	115896 77 259437690 1351906302 259201 260799.196613385197 2 259201 260799.19661339 520000.19661339 135201379355.19
vector 31  BasicTopology.peer[12].bitTorrentApp.bitTorrentClient  DownloadComplete_Test:vector  ETV
attr source BitTorrentClient_DownloadComplete_Test
attr title "Descargas completas (prueba), vector"
31	115973 77 259437691 1353965296 259201 260803.246569436509 2 259201 260803.24656944 520004.24656944 135203491822.16
vector 33  BasicTopology.peer[13].bitTorrentApp.bitTorrentClient  DownloadComplete_Test:vector  ETV
attr source BitTorrentClient_DownloadComplete_Test
attr title "Descargas completas (prueba), vector"
33	116050 76 259437692 998962185 259201 260031.926272213573 2 259201 260031.92627221 519232.92627221 134801761081.84
vector 35  BasicTopology.peer[14].bitTorrentApp.bitTorrentClient  DownloadComplete_Test:vector  ETV
attr source BitTorrentClient_DownloadComplete_Test
attr title "Descargas completas (prueba), vector"
35	116126 77 259437693 1021950199 259201 260112.886928818116 2 259201 260112.88692882 519313.88692882 134843872347.45
vector 37  BasicTopology.peer[15].bitTorrentApp.bitTorrentClient  DownloadComplete_Test:vector  ETV
attr source BitTorrentClient_DownloadComplete_Test
attr title "Descargas completas (prueba), vector"
37	116203 77 259437694 1350864947 259201 260796.537597677342 2 259201 260796.53759768 519997.53759768 135199992423.94
vector 39  BasicTopology.peer[16].bitTorrentApp.bitTorrentClient  DownloadComplete_Test:vector  ETV
attr source BitTorrentClient_DownloadComplete_Test
attr title "Descargas completas (prueba), vector"
39	116280 76 259437695 993723184 259201 260025.938735872472 2 259201 260025.93873587 519226.93873587 134798647216.47
vector 41  BasicTopology.peer[17].bitTorrentApp.bitTorrentClient  DownloadComplete_Test:vector  ETV
attr source BitTorrentClient_DownloadComplete_Test
attr title "Descargas completas (prueba), vector"
41	116356 77 259437696 1000315009 259201 260034.059984026551 2 259201 260034.05998403 519235.05998403 134802870752.78
vector 43  BasicTopology.peer[18].bitTorrentApp.bitTorrentClient  DownloadComplete_Test:vector  ETV
attr source BitTorrentClient_DownloadComplete_Test
attr title "Descargas completas (prueba), vector"
43	116433 76 259437697 298176946 259201 259299.037725460726 2 259201 259299.03772546 518500.03772546 134421149366.35
vector 45  BasicTopology.peer[19].bitTorrentApp.bitTorrentClient  DownloadComplete_Test:vector  ETV
attr source BitTorrentClient_DownloadComplete_Test
attr title "Descargas completas (prueba), vector"
45	116509 77 259437698 1358458338 259201 260809.679583863438 2 259201 260809.67958386 520010.67958386 135206847365.64
vector 47  BasicTopology.peer[20].bitTorrentApp.bitTorrentClient  DownloadComplete_Test:vector  ETV
attr source BitTorrentClient_DownloadComplete_Test
attr title "Descargas completas (prueba), vector"
47	116586 73 259437699 672694160 259201 259805.7616516955 2 259201 259805.7616517 519006.7616517 134684192188.42
vector 49  BasicTopology.peer[21].bitTorrentApp.bitTorrentClient  DownloadComplete_Test:vector  ETV
attr source BitTorrentClient_DownloadComplete_Test
attr title "Descargas completas (prueba), vector"
49	116659 75 259437700 1002322158 259201 260039.566003002571 2 259201 260039.566003 519240.566003 134805734288.03
vector 51  BasicTopology.peer[22].bitTorrentApp.bitTorrentClient  DownloadComplete_Test:vector  ETV
attr source BitTorrentClient_DownloadComplete_Test
attr title "Descargas completas (prueba), vector"
51	116734 76 259437701 977717615 259201 260010.881202816334 2 259201 260010.88120282 519211.88120282 134790816744.87
vector 53  BasicTopology.peer[23].bitTorrentApp.bitTorrentClient  DownloadComplete_Test:vector  ETV
attr source BitTorrentClient_DownloadComplete_Test
attr title "Descargas completas (prueba), vector"
53	116810 77 259437702 1004609064 259201 260044.930942965678 2 259201 260044.93094297 519245.93094297 134808524510.13
vector 55  BasicTopology.peer[24].bitTorrentApp.bitTorrentClient  DownloadComplete_Test:vector  ETV
attr source BitTorrentClient_DownloadComplete_Test
attr title "Descargas completas (prueba), vector"
55	116887 77 259437703 1361643678 259201 260815.104101962363 2 259201 260815.10410196 520016.10410196 135209676928.72
vector 57  BasicTopology.peer[25].bitTorrentApp.bitTorrentClient  DownloadComplete_Test:vector  ETV
attr source BitTorrentClient_DownloadComplete_Test
attr title "Descargas completas (prueba), vector"
57	116964 77 259437704 1356459658 259201 260807.295858060918 2 259201 260807.29585806 520008.29585806 135205603973.79
vector 59  BasicTopology.peer[26].bitTorrentApp.bitTorrentClient  DownloadComplete_Test:vector  ETV
attr source BitTorrentClient_DownloadComplete_Test
attr title "Descargas completas (prueba), vector"
59	117041 76 259437705 969057417 259201 260004.068975475664 2 259201 260004.06897548 519205.06897548 134787274284.81
vector 61  BasicTopology.peer[27].bitTorrentApp.bitTorrentClient  DownloadComplete_Test:vector  ETV
attr source BitTorrentClient_DownloadComplete_Test
attr title "Descargas completas (prueba), vector"
61	117117 77 259437706 1354897612 259201 260804.961054180729 2 259201 260804.96105418 520005.96105418 135204386111.47
vector 63  BasicTopology.peer[28].bitTorrentApp.bitTorrentClient  DownloadComplete_Test:vector  ETV
attr source BitTorrentClient_DownloadComplete_Test
attr title "Descargas completas (prueba), vector"
63	117194 77 259437707 1358691299 259201 260810.048288070726 2 259201 260810.04828807 520011.04828807 135207039689.03
vector 65  BasicTopology.peer[29].bitTorrentApp.bitTorrentClient  DownloadComplete_Test:vector  ETV
attr source BitTorrentClient_DownloadComplete_Test
attr title "Descargas completas (prueba), vector"
65	117271 77 259437708 1357970922 259201 260809.195746782998 2 259201 260809.19574678 520010.19574678 135206594987.08
vector 67  BasicTopology.peer[30].bitTorrentApp.bitTorrentClient  DownloadComplete_Test:vector  ETV
attr source BitTorrentClient_DownloadComplete_Test
attr title "Descargas completas (prueba), vector"
67	117348 76 259437709 296717591 259201 259293.802867159983 2 259201 259293.80286716 518494.80286716 134418434606.31
vector 69  BasicTopology.peer[31].bitTorrentApp.bitTorrentClient  DownloadComplete_Test:vector  ETV
attr source BitTorrentClient_DownloadComplete_Test
attr title "Descargas completas (prueba), vector"
69	117424 77 259437710 1343056939 259201 260772.477142005233 2 259201 260772.47714201 519973.47714201 135187443235.78
vector 71  BasicTopology.peer[32].bitTorrentApp.bitTorrentClient  DownloadComplete_Test:vector  ETV
attr source BitTorrentClient_DownloadComplete_Test
attr title "Descargas completas (prueba), vector"
71	117501 77 259437711 1357323119 259201 260808.440220648523 2 259201 260808.44022065 520009.44022065 135206200891.33
vector 73  BasicTopology.peer[33].bitTorrentApp.bitTorrentClient  DownloadComplete_Test:vector  ETV
attr source BitTorrentClient_DownloadComplete_Test
attr title "Descargas completas (prueba), vector"
73	117578 76 259437712 954313443 259201 259992.856339186433 2 259201 259992.85633919 519193.85633919 134781443748.41
vector 75  BasicTopology.peer[34].bitTorrentApp.bitTorrentClient  DownloadComplete_Test:vector  ETV
attr source BitTorrentClient_DownloadComplete_Test
attr title "Descargas completas (prueba), vector"
75	117654 77 259437713 1359517357 259201 260810.985263935406 2 259201 260810.98526394 520011.98526394 135207528435.35
vector 77  BasicTopology.peer[35].bitTorrentApp.bitTorrentClient  DownloadComplete_Test:vector  ETV
attr source BitTorrentClient_DownloadComplete_Test
attr title "Descargas completas (prueba), vector"
77	117731 76 259437714 309486196 259201 259347.463673637698 2 259201 259347.46367364 518548.46367364 134446265314.95
vector 79  BasicTopology.peer[36].bitTorrentApp.bitTorrentClient  DownloadComplete_Test:vector  ETV
attr source BitTorrentClient_DownloadComplete_Test
attr title "Descargas completas (prueba), vector"
79	117807 76 259437715 960384726 259201 259997.032341747601 2 259201 259997.03234175 519198.03234175 134783615227.52
vector 81  BasicTopology.peer[37].bitTorrentApp.bitTorrentClient  DownloadComplete_Test:vector  ETV
attr source BitTorrentClient_DownloadComplete_Test
attr title "Descargas completas (prueba), vector"
81	117883 76 259437716 1395840458 259201 261701.53203735393 2 259201 261701.53203735 520902.53203735 135672850271.7
vector 83  BasicTopology.peer[38].bitTorrentApp.bitTorrentClient  DownloadComplete_Test:vector  ETV
attr source BitTorrentClient_DownloadComplete_Test
attr title "Descargas completas (prueba), vector"
83	117959 75 259437717 980283079 259201 260013.412450100963 2 259201 260013.4124501 519214.4124501 134792133054.95
vector 85  BasicTopology.peer[39].bitTorrentApp.bitTorrentClient  DownloadComplete_Test:vector  ETV
attr source BitTorrentClient_DownloadComplete_Test
attr title "Descargas completas (prueba), vector"
85	118034 77 259437718 1361093485 259201 260813.760219444995 2 259201 260813.76021944 520014.76021944 135208975920.8
vector 87  BasicTopology.peer[40].bitTorrentApp.bitTorrentClient  DownloadComplete_Test:vector  ETV
attr source BitTorrentClient_DownloadComplete_Test
attr title "Descargas completas (prueba), vector"
87	118111 76 259437719 981340991 259201 260014.232136189887 2 259201 260014.23213619 519215.23213619 134792559314.37
vector 89  BasicTopology.peer[41].bitTorrentApp.bitTorrentClient  DownloadComplete_Test:vector  ETV
attr source BitTorrentClient_DownloadComplete_Test
attr title "Descargas completas (prueba), vector"
89	118187 77 259437720 1354896412 259201 260804.958552152735 2 259201 260804.95855215 520005.95855215 135204384806.39
vector 91  BasicTopology.peer[42].bitTorrentApp.bitTorrentClient  DownloadComplete_Test:vector  ETV
attr source BitTorrentClient_DownloadComplete_Test
attr title "Descargas completas (prueba), vector"
91	118264 77 259437721 1394428570 259201 261602.744874440231 2 259201 261602.74487444 520803.74487444 135621154526.84
vector 93  BasicTopology.peer[43].bitTorrentApp.bitTorrentClient  DownloadComplete_Test:vector  ETV
attr source BitTorrentClient_DownloadComplete_Test
attr title "Descargas completas (prueba), vector"
93	118341 77 259437722 1398899771 259201 262094.163607622801 2 259201 262094.16360762 521295.16360762 135878508998.18
vector 95  BasicTopology.peer[44].bitTorrentApp.bitTorrentClient  DownloadComplete_Test:vector  ETV
attr source BitTorrentClient_DownloadComplete_Test
attr title "Descargas completas (prueba), vector"
95	118418 76 259437723 1003788430 259201 260043.158408204106 2 259201 260043.1584082 519244.1584082 134807602635.91
vector 97  BasicTopology.peer[45].bitTorrentApp.bitTorrentClient  DownloadComplete_Test:vector  ETV
attr source BitTorrentClient_DownloadComplete_Test
attr title "Descargas completas (prueba), vector"
97	118494 77 259437724 1006342690 259201 260050.168364858668 2 259201 260050.16836486 519251.16836486 134811248467.59
vector 99  BasicTopology.peer[46].bitTorrentApp.bitTorrentClient  DownloadComplete_Test:vector  ETV
attr source BitTorrentClient_DownloadComplete_Test
attr title "Descargas completas (prueba), vector"
99	118571 75 259437725 970308801 259201 260005.09222012612 2 259201 260005.09222013 519206.09222013 134787806381.4
vector 101  BasicTopology.peer[47].bitTorrentApp.bitTorrentClient  DownloadComplete_Test:vector  ETV
attr source BitTorrentClient_DownloadComplete_Test
attr title "Descargas completas (prueba), vector"
101	118646 77 259437726 675540976 259201 259807.14087415143 2 259201 259807.14087415 519008.14087415 134684908850.2
vector 103  BasicTopology.peer[48].bitTorrentApp.bitTorrentClient  DownloadComplete_Test:vector  ETV
attr source BitTorrentClient_DownloadComplete_Test
attr title "Descargas completas (prueba), vector"
103	118723 78 259437727 985619153 259201 260018.061884965354 2 259201 260018.06188497 519219.06188497 134794550907.42
vector 105  BasicTopology.peer[49].bitTorrentApp.bitTorrentClient  DownloadComplete_Test:vector  ETV
attr source BitTorrentClient_DownloadComplete_Test
attr title "Descargas completas (prueba), vector"
105	118801 78 259437728 952659767 259201 259991.800007230543 2 259201 259991.80000723 519192.80000723 134780894472
vector 107  BasicTopology.peer[50].bitTorrentApp.bitTorrentClient  DownloadComplete_Test:vector  ETV
attr source BitTorrentClient_DownloadComplete_Test
attr title "Descargas completas (prueba), vector"
107	118879 79 259437729 1361067552 259201 260813.724576112387 2 259201 260813.72457611 520014.72457611 135208957328.26
vector 111  BasicTopology.peer[52].bitTorrentApp.bitTorrentClient  DownloadComplete_Test:vector  ETV
attr source BitTorrentClient_DownloadComplete_Test
attr title "Descargas completas (prueba), vector"
111	119060 79 259437731 1357352251 259201 260808.528821372951 2 259201 260808.52882137 520009.52882137 135206247106.97
vector 113  BasicTopology.peer[53].bitTorrentApp.bitTorrentClient  DownloadComplete_Test:vector  ETV
attr source BitTorrentClient_DownloadComplete_Test
attr title "Descargas completas (prueba), vector"
113	119139 79 259437732 1370395552 259201 260958.948779547514 2 259201 260958.94877955 520159.94877955 135284731349.13
vector 115  BasicTopology.peer[54].bitTorrentApp.bitTorrentClient  DownloadComplete_Test:vector  ETV
attr source BitTorrentClient_DownloadComplete_Test
attr title "Descargas completas (prueba), vector"
115	119218 78 259437733 536282401 259201 259685.956779993076 2 259201 259685.95677999 518886.95677999 134621954549.74
vector 117  BasicTopology.peer[55].bitTorrentApp.bitTorrentClient  DownloadComplete_Test:vector  ETV
attr source BitTorrentClient_DownloadComplete_Test
attr title "Descargas completas (prueba), vector"
117	119296 78 259437734 983585734 259201 260016.396524226674 2 259201 260016.39652423 519217.39652423 134793684862.45
vector 119  BasicTopology.peer[56].bitTorrentApp.bitTorrentClient  DownloadComplete_Test:vector  ETV
attr source BitTorrentClient_DownloadComplete_Test
attr title "Descargas completas (prueba), vector"
119	119374 78 259437735 986626585 259201 260019.258704235288 2 259201 260019.25870424 519220.25870424 134795173298.1
vector 121  BasicTopology.peer[57].bitTorrentApp.bitTorrentClient  DownloadComplete_Test:vector  ETV
attr source BitTorrentClient_DownloadComplete_Test
attr title "Descargas completas (prueba), vector"
121	119452 79 259437736 1358691532 259201 260810.048455189838 2 259201 260810.04845519 520011.04845519 135207039776.2
vector 123  BasicTopology.peer[58].bitTorrentApp.bitTorrentClient  DownloadComplete_Test:vector  ETV
attr source BitTorrentClient_DownloadComplete_Test
attr title "Descargas completas (prueba), vector"
123	119531 76 259437737 295646503 259201 259290.474556997998 2 259201 259290.474557 518491.474557 134416708596.99
vector 125  BasicTopology.peer[59].bitTorrentApp.bitTorrentClient  DownloadComplete_Test:vector  ETV
attr source BitTorrentClient_DownloadComplete_Test
attr title "Descargas completas (prueba), vector"
125	119607 79 259437738 1352885627 259201 260801.172608384202 2 259201 260801.17260838 520002.17260838 135202410034.91
vector 127  BasicTopology.peer[60].bitTorrentApp.bitTorrentClient  DownloadComplete_Test:vector  ETV
attr source BitTorrentClient_DownloadComplete_Test
attr title "Descargas completas (prueba), vector"
127	119686 78 259437739 960929460 259201 259997.421764236802 2 259201 259997.42176424 519198.42176424 134783817725.05
vector 129  BasicTopology.peer[61].bitTorrentApp.bitTorrentClient  DownloadComplete_Test:vector  ETV
attr source BitTorrentClient_DownloadComplete_Test
attr title "Descargas completas (prueba), vector"
129	119764 78 259437740 1004957550 259201 260046.175583300725 2 259201 260046.1755833 519247.1755833 134809171836.5
vector 131  BasicTopology.peer[62].bitTorrentApp.bitTorrentClient  DownloadComplete_Test:vector  ETV
attr source BitTorrentClient_DownloadComplete_Test
attr title "Descargas completas (prueba), vector"
131	119842 79 259437741 1349186318 259201 260786.737714829836 2 259201 260786.73771483 519987.73771483 135194880968.94
vector 133  BasicTopology.peer[63].bitTorrentApp.bitTorrentClient  DownloadComplete_Test:vector  ETV
attr source BitTorrentClient_DownloadComplete_Test
attr title "Descargas completas (prueba), vector"
133	119921 79 259437742 1356458843 259201 260807.295023453451 2 259201 260807.29502345 520008.29502345 135205603538.45
vector 135  BasicTopology.peer[64].bitTorrentApp.bitTorrentClient  DownloadComplete_Test:vector  ETV
attr source BitTorrentClient_DownloadComplete_Test
attr title "Descargas completas (prueba), vector"
135	120000 79 259437743 1355995360 259201 260806.665126963816 2 259201 260806.66512696 520007.66512696 135205274975.65
vector 137  BasicTopology.peer[65].bitTorrentApp.bitTorrentClient  DownloadComplete_Test:vector  ETV
attr source BitTorrentClient_DownloadComplete_Test
attr title "Descargas completas (prueba), vector"
137	120079 78 259437744 963312007 259201 259999.284893320076 2 259201 259999.28489332 519200.28489332 134784786546.04
vector 139  BasicTopology.peer[66].bitTorrentApp.bitTorrentClient  DownloadComplete_Test:vector  ETV
attr source BitTorrentClient_DownloadComplete_Test
attr title "Descargas completas (prueba), vector"
139	120157 79 259437745 1361835741 259201 260815.837723977731 2 259201 260815.83772398 520016.83772398 135210059608.66
vector 141  BasicTopology.peer[67].bitTorrentApp.bitTorrentClient  DownloadComplete_Test:vector  ETV
attr source BitTorrentClient_DownloadComplete_Test
attr title "Descargas completas (prueba), vector"
141	120236 78 259437746 964871494 259201 260000.576709315723 2 259201 260000.57670932 519201.57670932 134785458290.18
vector 143  BasicTopology.peer[68].bitTorrentApp.bitTorrentClient  DownloadComplete_Test:vector  ETV
attr source BitTorrentClient_DownloadComplete_Test
attr title "Descargas completas (prueba), vector"
143	120314 78 259437747 1007258875 259201 260051.92928114578 2 259201 260051.92928115 519252.92928115 134812164323.85
vector 145  BasicTopology.peer[69].bitTorrentApp.bitTorrentClient  DownloadComplete_Test:vector  ETV
attr source BitTorrentClient_DownloadComplete_Test
attr title "Descargas completas (prueba), vector"
145	120392 78 259437748 982671993 259201 260015.452420093997 2 259201 260015.45242009 519216.45242009 134793193898.22
vector 147  BasicTopology.peer[70].bitTorrentApp.bitTorrentClient  DownloadComplete_Test:vector  ETV
attr source BitTorrentClient_DownloadComplete_Test
attr title "Descargas completas (prueba), vector"
147	120470 79 259437749 1014097999 259201 260102.438366959485 2 259201 260102.43836696 519303.43836696 134838436845.44
vector 149  BasicTopology.peer[71].bitTorrentApp.bitTorrentClient  DownloadComplete_Test:vector  ETV
attr source BitTorrentClient_DownloadComplete_Test
attr title "Descargas completas (prueba), vector"
149	120549 78 259437750 980173304 259201 260013.300705537793 2 259201 260013.30070554 519214.30070554 134792074944.79
vector 151  BasicTopology.peer[72].bitTorrentApp.bitTorrentClient  DownloadComplete_Test:vector  ETV
attr source BitTorrentClient_DownloadComplete_Test
attr title "Descargas completas (prueba), vector"
151	120627 79 259437751 1400139135 259201 262261.209973006103 2 259201 262261.20997301 521462.20997301 135966100657.51
vector 153  BasicTopology.peer[73].bitTorrentApp.bitTorrentClient  DownloadComplete_Test:vector  ETV
attr source BitTorrentClient_DownloadComplete_Test
attr title "Descargas completas (prueba), vector"
153	120706 78 259437752 956476931 259201 259994.318017641834 2 259201 259994.31801764 519195.31801764 134782203802.46
vector 155  BasicTopology.peer[74].bitTorrentApp.bitTorrentClient  DownloadComplete_Test:vector  ETV
attr source BitTorrentClient_DownloadComplete_Test
attr title "Descargas completas (prueba), vector"
155	120784 78 259437753 978510185 259201 260011.656572339624 2 259201 260011.65657234 519212.65657234 134791219954.49
vector 157  BasicTopology.peer[75].bitTorrentApp.bitTorrentClient  DownloadComplete_Test:vector  ETV
attr source BitTorrentClient_DownloadComplete_Test
attr title "Descargas completas (prueba), vector"
157	120862 79 259437754 1379319848 259201 261159.813858448941 2 259201 261159.81385845 520360.81385845 135389606775.58
vector 159  BasicTopology.peer[76].bitTorrentApp.bitTorrentClient  DownloadComplete_Test:vector  ETV
attr source BitTorrentClient_DownloadComplete_Test
attr title "Descargas completas (prueba), vector"
159	120941 79 259437755 1354898316 259201 260804.961782333342 2 259201 260804.96178233 520005.96178233 135204386491.28
vector 161  BasicTopology.peer[77].bitTorrentApp.bitTorrentClient  DownloadComplete_Test:vector  ETV
attr source BitTorrentClient_DownloadComplete_Test
attr title "Descargas completas (prueba), vector"
161	121020 78 259437756 1327333851 259201 260703.38504621086 2 259201 260703.38504621 519904.38504621 135151413375.55
vector 163  BasicTopology.peer[78].bitTorrentApp.bitTorrentClient  DownloadComplete_Test:vector  ETV
attr source BitTorrentClient_DownloadComplete_Test
attr title "Descargas completas (prueba), vector"
163	121098 79 259437757 1352886431 259201 260801.173928760669 2 259201 260801.17392876 520002.17392876 135202410723.62
vector 165  BasicTopology.peer[79].bitTorrentApp.bitTorrentClient  DownloadComplete_Test:vector  ETV
attr source BitTorrentClient_DownloadComplete_Test
attr title "Descargas completas (prueba), vector"
165	121177 79 259437758 1353376752 259201 260802.051393444918 2 259201 260802.05139344 520003.05139344 135202868412.03
vector 167  BasicTopology.peer[80].bitTorrentApp.bitTorrentClient  DownloadComplete_Test:vector  ETV
attr source BitTorrentClient_DownloadComplete_Test
attr title "Descargas completas (prueba), vector"
167	121256 78 259437759 296369313 259201 259292.667577935429 2 259201 259292.66757794 518493.66757794 134417845860.68
vector 169  BasicTopology.peer[81].bitTorrentApp.bitTorrentClient  DownloadComplete_Test:vector  ETV
attr source BitTorrentClient_DownloadComplete_Test
attr title "Descargas completas (prueba), vector"
169	121334 79 259437760 1028721924 259201 260124.160737764312 2 259201 260124.16073776 519325.16073776 134849737400.52
vector 171  BasicTopology.peer[82].bitTorrentApp.bitTorrentClient  DownloadComplete_Test:vector  ETV
attr source BitTorrentClient_DownloadComplete_Test
attr title "Descargas completas (prueba), vector"
171	121413 78 259437761 995428895 259201 260027.811893547143 2 259201 260027.81189355 519228.81189355 134799621359.15
vector 173  BasicTopology.peer[83].bitTorrentApp.bitTorrentClient  DownloadComplete_Test:vector  ETV
attr source BitTorrentClient_DownloadComplete_Test
attr title "Descargas completas (prueba), vector"
173	121491 78 259437762 964589632 259201 260000.307330454272 2 259201 260000.30733045 519201.30733045 134785318212.93
vector 175  BasicTopology.peer[84].bitTorrentApp.bitTorrentClient  DownloadComplete_Test:vector  ETV
attr source BitTorrentClient_DownloadComplete_Test
attr title "Descargas completas (prueba), vector"
175	121569 78 259437763 986881147 259201 260019.440579365907 2 259201 260019.44057937 519220.44057937 134795267880.21
vector 177  BasicTopology.peer[85].bitTorrentApp.bitTorrentClient  DownloadComplete_Test:vector  ETV
attr source BitTorrentClient_DownloadComplete_Test
attr title "Descargas completas (prueba), vector"
177	121647 79 259437764 1002013768 259201 260038.299323314016 2 259201 260038.29932331 519239.29932331 134805075515.96
vector 179  BasicTopology.peer[86].bitTorrentApp.bitTorrentClient  DownloadComplete_Test:vector  ETV
attr source BitTorrentClient_DownloadComplete_Test
attr title "Descargas completas (prueba), vector"
179	121726 79 259437765 1361618779 259201 260814.927596472925 2 259201 260814.92759647 520015.92759647 135209584858.15
vector 181  BasicTopology.peer[87].bitTorrentApp.bitTorrentClient  DownloadComplete_Test:vector  ETV
attr source BitTorrentClient_DownloadComplete_Test
attr title "Descargas completas (prueba), vector"
181	121805 79 259437766 1361134096 259201 260813.842990175303 2 259201 260813.84299018 520014.84299018 135209019096.31
vector 183  BasicTopology.peer[88].bitTorrentApp.bitTorrentClient  DownloadComplete_Test:vector  ETV
attr source BitTorrentClient_DownloadComplete_Test
attr title "Descargas completas (prueba), vector"
183	121884 79 259437767 1386601138 259201 261311.090421554601 2 259201 261311.09042155 520512.09042155 135468644378.3
vector 185  BasicTopology.peer[89].bitTorrentApp.bitTorrentClient  DownloadComplete_Test:vector  ETV
attr source BitTorrentClient_DownloadComplete_Test
attr title "Descargas completas (prueba), vector"
185	121963 78 259437768 309578237 259201 259348.040262966515 2 259201 259348.04026297 518549.04026297 134446564389.24
vector 187  BasicTopology.peer[90].bitTorrentApp.bitTorrentClient  DownloadComplete_Test:vector  ETV
attr source BitTorrentClient_DownloadComplete_Test
attr title "Descargas completas (prueba), vector"
187	122041 78 259437769 309486720 259201 259347.465044769312 2 259201 259347.46504477 518548.46504477 134446266026.15
vector 189  BasicTopology.peer[91].bitTorrentApp.bitTorrentClient  DownloadComplete_Test:vector  ETV
attr source BitTorrentClient_DownloadComplete_Test
attr title "Descargas completas (prueba), vector"
189	122119 78 259437770 308905752 259201 259344.623255838852 2 259201 259344.62325584 518545.62325584 134444792012.71