file 3060552 1530037526                                         
version 2
run Test-25-20170629-12:58:19-3438
attr configname Test
attr datetime 20170629-12:58:19
attr experiment "\"Simulation Test\""
attr inifile BasicConfig.ini
attr iterationvars ""
attr iterationvars2 $repetition=25
attr measurement "\"Peers: $peers, Rate: $rate\""
attr network BasicTopology
attr processid 3438
attr repetition 25
attr replication #25
attr resultdir results
attr runnumber 25
attr seedset 25
vector 1  BasicTopology  EnterSwarm:vector  ETV
attr "" ""
attr source SwarmManager_EnterSwarm
attr title "Enter Swarm Time, vector"
1	93618 2600 259436594 259437824 259200 259201 100 259200 259201 25920099 6718515321699
vector 3  BasicTopology  SwarmEmittedPeerId:vector  ETV
attr "" ""
attr source SwarmManager_EmittedPeerId
attr title "Peer Swarm Signal Emitted, vector"
3	96218 2202 259436594 259437824 259200 259201 100 6 105 5550 391350
vector 9  BasicTopology.peer[1].bitTorrentApp.bitTorrentClient  DownloadComplete_Test:vector  ETV
attr source BitTorrentClient_DownloadComplete_Test
attr title "Descargas completas (prueba), vector"
9	116120 74 259437726 503527398 259201 260215.774873446018 2 259201 260215.77487345 519416.77487345 134897407893.99
vector 0  BasicTopology  DownloadComplete_Test:vector  ETV
attr source BitTorrentClient_DownloadComplete_Test
attr title "Tiempo de desacarga (prueba), vector"
0	86264 7354 259437726 1275224598 259201 263435.460927021138 198 259201 263435.46092702 51468633.880434 13379018630886
vector 11  BasicTopology.peer[2].bitTorrentApp.bitTorrentClient  DownloadComplete_Test:vector  ETV
attr source BitTorrentClient_DownloadComplete_Test
attr title "Descargas completas (prueba), vector"
11	116194 75 259437727 682796740 259201 260391.05392868446 2 259201 260391.05392868 519592.05392868 134988659367.09
vector 13  BasicTopology.peer[3].bitTorrentApp.bitTorrentClient  DownloadComplete_Test:vector  ETV
attr source BitTorrentClient_DownloadComplete_Test
attr title "Descargas completas (prueba), vector"
13	116269 76 259437728 531479644 259201 260230.435616186894 2 259201 260230.43561619 519431.43561619 134905038021.99
vector 15  BasicTopology.peer[4].bitTorrentApp.bitTorrentClient  DownloadComplete_Test:vector  ETV
attr source BitTorrentClient_DownloadComplete_Test
attr title "Descargas completas (prueba), vector"
15	116345 76 259437729 649482142 259201 260331.538025734849 2 259201 260331.53802573 519532.53802573 134957668091.84
vector 17  BasicTopology.peer[5].bitTorrentApp.bitTorrentClient  DownloadComplete_Test:vector  ETV
attr source BitTorrentClient_DownloadComplete_Test
attr title "Descargas completas (prueba), vector"
17	116421 76 259437730 516481463 259201 260222.585002063762 2 259201 260222.58500206 519423.58500206 134900952146.15
vector 19  BasicTopology.peer[6].bitTorrentApp.bitTorrentClient  DownloadComplete_Test:vector  ETV
attr source BitTorrentClient_DownloadComplete_Test
attr title "Descargas completas (prueba), vector"
19	116497 77 259437731 1075125299 259201 260833.134131416457 2 259201 260833.13413142 520034.13413142 135219082261.82
vector 21  BasicTopology.peer[7].bitTorrentApp.bitTorrentClient  DownloadComplete_Test:vector  ETV
attr source BitTorrentClient_DownloadComplete_Test
attr title "Descargas completas (prueba), vector"
21	116574 76 259437732 952152828 259201 260730.176952181012 2 259201 260730.17695218 519931.17695218 135165383574.52
vector 23  BasicTopology.peer[8].bitTorrentApp.bitTorrentClient  DownloadComplete_Test:vector  ETV
attr source BitTorrentClient_DownloadComplete_Test
attr title "Descargas completas (prueba), vector"
23	116650 77 259437733 1244074452 259201 260999.943691875426 2 259201 260999.94369188 520200.94369188 135306129008.16
vector 25  BasicTopology.peer[9].bitTorrentApp.bitTorrentClient  DownloadComplete_Test:vector  ETV
attr source BitTorrentClient_DownloadComplete_Test
attr title "Descargas completas (prueba), vector"
25	116727 76 259437734 686955625 259201 260406.491433862618 2 259201 260406.49143386 519607.49143386 134996699181.89
vector 27  BasicTopology.peer[10].bitTorrentApp.bitTorrentClient  DownloadComplete_Test:vector  ETV
attr source BitTorrentClient_DownloadComplete_Test
attr title "Descargas completas (prueba), vector"
27	116803 77 259437735 1214401837 259201 260956.101487462612 2 259201 260956.10148746 520157.10148746 135283245304.53
vector 29  BasicTopology.peer[11].bitTorrentApp.bitTorrentClient  DownloadComplete_Test:vector  ETV
attr source BitTorrentClient_DownloadComplete_Test
attr title "Descargas completas (prueba), vector"
29	116880 76 259437736 678958311 259201 260381.563875469704 2 259201 260381.56387547 519582.56387547 134983717207.24
vector 31  BasicTopology.peer[12].bitTorrentApp.bitTorrentClient  DownloadComplete_Test:vector  ETV
attr source BitTorrentClient_DownloadComplete_Test
attr title "Descargas completas (prueba), vector"
31	116956 76 259437737 951000069 259201 260729.442561822038 2 259201 260729.44256182 519930.44256182 135165000619.6
vector 33  BasicTopology.peer[13].bitTorrentApp.bitTorrentClient  DownloadComplete_Test:vector  ETV
attr source BitTorrentClient_DownloadComplete_Test
attr title "Descargas completas (prueba), vector"
33	117032 77 259437738 1249540118 259201 261013.155062373771 2 259201 261013.15506237 520214.15506237 135313025516.61
vector 35  BasicTopology.peer[14].bitTorrentApp.bitTorrentClient  DownloadComplete_Test:vector  ETV
attr source BitTorrentClient_DownloadComplete_Test
attr title "Descargas completas (prueba), vector"
35	117109 77 259437739 1247513230 259201 261005.338139956248 2 259201 261005.33813996 520206.33813996 135308944938.55
vector 37  BasicTopology.peer[15].bitTorrentApp.bitTorrentClient  DownloadComplete_Test:vector  ETV
attr source BitTorrentClient_DownloadComplete_Test
attr title "Descargas completas (prueba), vector"
37	117186 76 259437740 519091023 259201 260223.927748145289 2 259201 260223.92774815 519424.92774815 134901650973.67
vector 39  BasicTopology.peer[16].bitTorrentApp.bitTorrentClient  DownloadComplete_Test:vector  ETV
attr source BitTorrentClient_DownloadComplete_Test
attr title "Descargas completas (prueba), vector"
39	117262 76 259437741 540749858 259201 260235.277070933776 2 259201 260235.27707093 519436.27707093 134907557833.18
vector 41  BasicTopology.peer[17].bitTorrentApp.bitTorrentClient  DownloadComplete_Test:vector  ETV
attr source BitTorrentClient_DownloadComplete_Test
attr title "Descargas completas (prueba), vector"
41	117338 76 259437742 683312741 259201 260392.915330041737 2 259201 260392.91533004 519593.91533004 134989628755.08
vector 43  BasicTopology.peer[18].bitTorrentApp.bitTorrentClient  DownloadComplete_Test:vector  ETV
attr source BitTorrentClient_DownloadComplete_Test
attr title "Descargas completas (prueba), vector"
43	117414 77 259437743 1267733685 259201 261901.980598076964 2 259201 261901.98059808 521102.98059808 135777805842.2
vector 45  BasicTopology.peer[19].bitTorrentApp.bitTorrentClient  DownloadComplete_Test:vector  ETV
attr source BitTorrentClient_DownloadComplete_Test
attr title "Descargas completas (prueba), vector"
45	117491 77 259437744 1249695201 259201 261016.018999537171 2 259201 261016.01899954 520217.01899954 135314520575.37
vector 47  BasicTopology.peer[20].bitTorrentApp.bitTorrentClient  DownloadComplete_Test:vector  ETV
attr source BitTorrentClient_DownloadComplete_Test
attr title "Descargas completas (prueba), vector"
47	117568 76 259437745 642724934 259201 260322.626479215544 2 259201 260322.62647922 519523.62647922 134953028258.04
vector 49  BasicTopology.peer[21].bitTorrentApp.bitTorrentClient  DownloadComplete_Test:vector  ETV
attr source BitTorrentClient_DownloadComplete_Test
attr title "Descargas completas (prueba), vector"
49	117644 76 259437746 960409862 259201 260735.473148989213 2 259201 260735.47314899 519936.47314899 135168145359.23
vector 51  BasicTopology.peer[22].bitTorrentApp.bitTorrentClient  DownloadComplete_Test:vector  ETV
attr source BitTorrentClient_DownloadComplete_Test
attr title "Descargas completas (prueba), vector"
51	117720 74 259437747 643312265 259201 260323.2823425171 2 259201 260323.28234252 519524.28234252 134953369730.58
vector 53  BasicTopology.peer[23].bitTorrentApp.bitTorrentClient  DownloadComplete_Test:vector  ETV
attr source BitTorrentClient_DownloadComplete_Test
attr title "Descargas completas (prueba), vector"
53	117794 77 259437748 1226634008 259201 260970.020559615423 2 259201 260970.02055962 520171.02055962 135290510031.89
vector 55  BasicTopology.peer[24].bitTorrentApp.bitTorrentClient  DownloadComplete_Test:vector  ETV
attr source BitTorrentClient_DownloadComplete_Test
attr title "Descargas completas (prueba), vector"
55	117871 76 259437749 682449850 259201 260389.344024062114 2 259201 260389.34402406 519590.34402406 134987768882.28
vector 57  BasicTopology.peer[25].bitTorrentApp.bitTorrentClient  DownloadComplete_Test:vector  ETV
attr source BitTorrentClient_DownloadComplete_Test
attr title "Descargas completas (prueba), vector"
57	117947 76 259437750 489889906 259201 260208.427105005297 2 259201 260208.42710501 519409.42710501 134893583937.46
vector 59  BasicTopology.peer[26].bitTorrentApp.bitTorrentClient  DownloadComplete_Test:vector  ETV
attr source BitTorrentClient_DownloadComplete_Test
attr title "Descargas completas (prueba), vector"
59	118023 77 259437751 1231133913 259201 260975.533001458084 2 259201 260975.53300146 520176.53300146 135293387226.4
vector 61  BasicTopology.peer[27].bitTorrentApp.bitTorrentClient  DownloadComplete_Test:vector  ETV
attr source BitTorrentClient_DownloadComplete_Test
attr title "Descargas completas (prueba), vector"
61	118100 76 259437752 679825886 259201 260383.336538194395 2 259201 260383.33653819 519584.33653819 134984640347.76
vector 63  BasicTopology.peer[28].bitTorrentApp.bitTorrentClient  DownloadComplete_Test:vector  ETV
attr source BitTorrentClient_DownloadComplete_Test
attr title "Descargas completas (prueba), vector"
63	118176 77 259437753 1250600081 259201 261023.802324729408 2 259201 261023.80232473 520224.80232473 135318583781.06
vector 65  BasicTopology.peer[29].bitTorrentApp.bitTorrentClient  DownloadComplete_Test:vector  ETV
attr source BitTorrentClient_DownloadComplete_Test
attr title "Descargas completas (prueba), vector"
65	118253 77 259437754 1156078892 259201 260893.848272573073 2 259201 260893.84827257 520094.84827257 135250758467.47
vector 67  BasicTopology.peer[30].bitTorrentApp.bitTorrentClient  DownloadComplete_Test:vector  ETV
attr source BitTorrentClient_DownloadComplete_Test
attr title "Descargas completas (prueba), vector"
67	118330 76 259437755 942535815 259201 260721.820441593592 2 259201 260721.82044159 519922.82044159 135161026055.38
vector 69  BasicTopology.peer[31].bitTorrentApp.bitTorrentClient  DownloadComplete_Test:vector  ETV
attr source BitTorrentClient_DownloadComplete_Test
attr title "Descargas completas (prueba), vector"
69	118406 76 259437756 1215657441 259201 260957.575610396589 2 259201 260957.5756104 520158.5756104 135284014669.46
vector 71  BasicTopology.peer[32].bitTorrentApp.bitTorrentClient  DownloadComplete_Test:vector  ETV
attr source BitTorrentClient_DownloadComplete_Test
attr title "Descargas completas (prueba), vector"
71	118482 76 259437757 492445036 259201 260210.089560756094 2 259201 260210.08956076 519411.08956076 134894449110.22
vector 73  BasicTopology.peer[33].bitTorrentApp.bitTorrentClient  DownloadComplete_Test:vector  ETV
attr source BitTorrentClient_DownloadComplete_Test
attr title "Descargas completas (prueba), vector"
73	118558 77 259437758 1275224598 259201 263435.460927021138 2 259201 263435.46092702 522636.46092702 136583400474.83
vector 75  BasicTopology.peer[34].bitTorrentApp.bitTorrentClient  DownloadComplete_Test:vector  ETV
attr source BitTorrentClient_DownloadComplete_Test
attr title "Descargas completas (prueba), vector"
75	118635 77 259437759 1190947710 259201 260929.281707157676 2 259201 260929.28170716 520130.28170716 135269248453.21
vector 77  BasicTopology.peer[35].bitTorrentApp.bitTorrentClient  DownloadComplete_Test:vector  ETV
attr source BitTorrentClient_DownloadComplete_Test
attr title "Descargas completas (prueba), vector"
77	118712 76 259437760 596320174 259201 260275.325068424789 2 259201 260275.32506842 519476.32506842 134928403240.47
vector 79  BasicTopology.peer[36].bitTorrentApp.bitTorrentClient  DownloadComplete_Test:vector  ETV
attr source BitTorrentClient_DownloadComplete_Test
attr title "Descargas completas (prueba), vector"
79	118788 75 259437761 983073473 259201 260756.67971582839 2 259201 260756.67971583 519957.67971583 135179204417.42
vector 81  BasicTopology.peer[37].bitTorrentApp.bitTorrentClient  DownloadComplete_Test:vector  ETV
attr source BitTorrentClient_DownloadComplete_Test
attr title "Descargas completas (prueba), vector"
81	118863 76 259437762 675167241 259201 260374.959287391273 2 259201 260374.95928739 519575.95928739 134980277824.91
vector 83  BasicTopology.peer[38].bitTorrentApp.bitTorrentClient  DownloadComplete_Test:vector  ETV
attr source BitTorrentClient_DownloadComplete_Test
attr title "Descargas completas (prueba), vector"
83	118939 76 259437763 503520691 259201 260215.771922250923 2 259201 260215.77192225 519416.77192225 134897406358.09
vector 85  BasicTopology.peer[39].bitTorrentApp.bitTorrentClient  DownloadComplete_Test:vector  ETV
attr source BitTorrentClient_DownloadComplete_Test
attr title "Descargas completas (prueba), vector"
85	119015 76 259437764 1246544951 259201 261003.887414502082 2 259201 261003.8874145 520204.8874145 135308187646.48
vector 87  BasicTopology.peer[40].bitTorrentApp.bitTorrentClient  DownloadComplete_Test:vector  ETV
attr source BitTorrentClient_DownloadComplete_Test
attr title "Descargas completas (prueba), vector"
87	119091 76 259437765 545536343 259201 260238.004394349152 2 259201 260238.00439435 519439.00439435 134908977332.15
vector 89  BasicTopology.peer[41].bitTorrentApp.bitTorrentClient  DownloadComplete_Test:vector  ETV
attr source BitTorrentClient_DownloadComplete_Test
attr title "Descargas completas (prueba), vector"
89	119167 76 259437766 644260597 259201 260324.524433293835 2 259201 260324.52443329 519525.52443329 134954016422.42
vector 91  BasicTopology.peer[42].bitTorrentApp.bitTorrentClient  DownloadComplete_Test:vector  ETV
attr source BitTorrentClient_DownloadComplete_Test
attr title "Descargas completas (prueba), vector"
91	119243 76 259437767 926915385 259201 260706.229525860727 2 259201 260706.22952586 519907.22952586 135152896514.59
vector 93  BasicTopology.peer[43].bitTorrentApp.bitTorrentClient  DownloadComplete_Test:vector  ETV
attr source BitTorrentClient_DownloadComplete_Test
attr title "Descargas completas (prueba), vector"
93	119319 76 259437768 844434258 259201 260620.421869254366 2 259201 260620.42186925 519821.42186925 135108162696.31
vector 95  BasicTopology.peer[44].bitTorrentApp.bitTorrentClient  DownloadComplete_Test:vector  ETV
attr source BitTorrentClient_DownloadComplete_Test
attr title "Descargas completas (prueba), vector"
95	119395 76 259437769 649924669 259201 260332.047641693965 2 259201 260332.04764169 519533.04764169 134957933430.32
vector 97  BasicTopology.peer[45].bitTorrentApp.bitTorrentClient  DownloadComplete_Test:vector  ETV
attr source BitTorrentClient_DownloadComplete_Test
attr title "Descargas completas (prueba), vector"
97	119471 77 259437770 1214401326 259201 260956.101091928897 2 259201 260956.10109193 520157.10109193 135283245098.1
vector 99  BasicTopology.peer[46].bitTorrentApp.bitTorrentClient  DownloadComplete_Test:vector  ETV
attr source BitTorrentClient_DownloadComplete_Test
attr title "Descargas completas (prueba), vector"
99	119548 77 259437771 1231084024 259201 260975.462357338273 2 259201 260975.46235734 520176.46235734 135293350353.63
vector 101  BasicTopology.peer[47].bitTorrentApp.bitTorrentClient  DownloadComplete_Test:vector  ETV
attr source BitTorrentClient_DownloadComplete_Test
attr title "Descargas completas (prueba), vector"
101	119625 79 259437772 1254161542 259201 261070.639979852821 2 259201 261070.63997985 520271.63997985 135343037460.49
vector 103  BasicTopology.peer[48].bitTorrentApp.bitTorrentClient  DownloadComplete_Test:vector  ETV
attr source BitTorrentClient_DownloadComplete_Test
attr title "Descargas completas (prueba), vector"
103	119704 79 259437773 1241715782 259201 260994.203199367372 2 259201 260994.20319937 520195.20319937 135303132504.67
vector 105  BasicTopology.peer[49].bitTorrentApp.bitTorrentClient  DownloadComplete_Test:vector  ETV
attr source BitTorrentClient_DownloadComplete_Test
attr title "Descargas completas (prueba), vector"
105	119783 78 259437774 677753393 259201 260379.051214346235 2 259201 260379.05121435 519580.05121435 134982408712.29
vector 107  BasicTopology.peer[50].bitTorrentApp.bitTorrentClient  DownloadComplete_Test:vector  ETV
attr source BitTorrentClient_DownloadComplete_Test
attr title "Descargas completas (prueba), vector"
107	119861 79 259437775 1247980219 259201 261005.939596316415 2 259201 261005.93959632 520206.93959632 135309258905.56
vector 109  BasicTopology.peer[51].bitTorrentApp.bitTorrentClient  DownloadComplete_Test:vector  ETV
attr source BitTorrentClient_DownloadComplete_Test
attr title "Descargas completas (prueba), vector"
109	119940 78 259437776 729248890 259201 260525.507153534507 2 259201 260525.50715353 519726.50715353 135058698278.6
vector 111  BasicTopology.peer[52].bitTorrentApp.bitTorrentClient  DownloadComplete_Test:vector  ETV
attr source BitTorrentClient_DownloadComplete_Test
attr title "Descargas completas (prueba), vector"
111	120018 78 259437777 965448569 259201 260739.233212011935 2 259201 260739.23321201 519940.23321201 135170106136.99
vector 113  BasicTopology.peer[53].bitTorrentApp.bitTorrentClient  DownloadComplete_Test:vector  ETV
attr source BitTorrentClient_DownloadComplete_Test
attr title "Descargas completas (prueba), vector"
113	120096 79 259437778 1246361851 259201 261003.687319821852 2 259201 261003.68731982 520204.68731982 135308083195.54
vector 115  BasicTopology.peer[54].bitTorrentApp.bitTorrentClient  DownloadComplete_Test:vector  ETV
attr source BitTorrentClient_DownloadComplete_Test
attr title "Descargas completas (prueba), vector"
115	120175 78 259437779 676099965 259201 260376.584171688564 2 259201 260376.58417169 519577.58417169 134981123985.92
vector 117  BasicTopology.peer[55].bitTorrentApp.bitTorrentClient  DownloadComplete_Test:vector  ETV
attr source BitTorrentClient_DownloadComplete_Test
attr title "Descargas completas (prueba), vector"
117	120253 78 259437780 670493704 259201 260366.356803628636 2 259201 260366.35680363 519567.35680363 134975798156.2
vector 119  BasicTopology.peer[56].bitTorrentApp.bitTorrentClient  DownloadComplete_Test:vector  ETV
attr source BitTorrentClient_DownloadComplete_Test
attr title "Descargas completas (prueba), vector"
119	120331 78 259437781 687598994 259201 260409.532849512051 2 259201 260409.53284951 519610.53284951 134998283199.9
vector 121  BasicTopology.peer[57].bitTorrentApp.bitTorrentClient  DownloadComplete_Test:vector  ETV
attr source BitTorrentClient_DownloadComplete_Test
attr title "Descargas completas (prueba), vector"
121	120409 79 259437782 1232435534 259201 260977.026383643656 2 259201 260977.02638364 520178.02638364 135294166701.05
vector 123  BasicTopology.peer[58].bitTorrentApp.bitTorrentClient  DownloadComplete_Test:vector  ETV
attr source BitTorrentClient_DownloadComplete_Test
attr title "Descargas completas (prueba), vector"
123	120488 77 259437783 1227768617 259201 260971.5967400122 2 259201 260971.59674001 520172.59674001 135291332706.03
vector 125  BasicTopology.peer[59].bitTorrentApp.bitTorrentClient  DownloadComplete_Test:vector  ETV
attr source BitTorrentClient_DownloadComplete_Test
attr title "Descargas completas (prueba), vector"
125	120565 79 259437784 1232434196 259201 260977.025690055914 2 259201 260977.02569006 520178.02569006 135294166339.03
vector 127  BasicTopology.peer[60].bitTorrentApp.bitTorrentClient  DownloadComplete_Test:vector  ETV
attr source BitTorrentClient_DownloadComplete_Test
attr title "Descargas completas (prueba), vector"
127	120644 78 259437785 755028163 259201 260547.887929281416 2 259201 260547.88792928 519748.88792928 135070360305.41
vector 129  BasicTopology.peer[61].bitTorrentApp.bitTorrentClient  DownloadComplete_Test:vector  ETV
attr source BitTorrentClient_DownloadComplete_Test
attr title "Descargas completas (prueba), vector"
129	120722 78 259437786 968957685 259201 260743.688224889693 2 259201 260743.68822489 519944.68822489 135172429350.12
vector 131  BasicTopology.peer[62].bitTorrentApp.bitTorrentClient  DownloadComplete_Test:vector  ETV
attr source BitTorrentClient_DownloadComplete_Test
attr title "Descargas completas (prueba), vector"
131	120800 78 259437787 510317949 259201 260219.213110523465 2 259201 260219.21311052 519420.21311052 134899197272.86
vector 133  BasicTopology.peer[63].bitTorrentApp.bitTorrentClient  DownloadComplete_Test:vector  ETV
attr source BitTorrentClient_DownloadComplete_Test
attr title "Descargas completas (prueba), vector"
133	120878 78 259437788 955186557 259201 260731.913574168731 2 259201 260731.91357417 519932.91357417 135166289157.05
vector 135  BasicTopology.peer[64].bitTorrentApp.bitTorrentClient  DownloadComplete_Test:vector  ETV
attr source BitTorrentClient_DownloadComplete_Test
attr title "Descargas completas (prueba), vector"
135	120956 78 259437789 681005374 259201 260386.120666664628 2 259201 260386.12066666 519587.12066666 134986090236.83
vector 137  BasicTopology.peer[65].bitTorrentApp.bitTorrentClient  DownloadComplete_Test:vector  ETV
attr source BitTorrentClient_DownloadComplete_Test
attr title "Descargas completas (prueba), vector"
137	121034 79 259437790 1261235042 259201 261303.562447451895 2 259201 261303.56244745 520504.56244745 135464710148.73
vector 139  BasicTopology.peer[66].bitTorrentApp.bitTorrentClient  DownloadComplete_Test:vector  ETV
attr source BitTorrentClient_DownloadComplete_Test
attr title "Descargas completas (prueba), vector"
139	121113 79 259437791 1074749516 259201 260832.902522206694 2 259201 260832.90252221 520033.90252221 135218961439.16
vector 141  BasicTopology.peer[67].bitTorrentApp.bitTorrentClient  DownloadComplete_Test:vector  ETV
attr source BitTorrentClient_DownloadComplete_Test
attr title "Descargas completas (prueba), vector"
141	121192 78 259437792 938721847 259201 260718.123122669154 2 259201 260718.12312267 519919.12312267 135159098125.61
vector 143  BasicTopology.peer[68].bitTorrentApp.bitTorrentClient  DownloadComplete_Test:vector  ETV
attr source BitTorrentClient_DownloadComplete_Test
attr title "Descargas completas (prueba), vector"
143	121270 79 259437793 1237611464 259201 260984.253189085631 2 259201 260984.25318909 520185.25318909 135297938813.67
vector 145  BasicTopology.peer[69].bitTorrentApp.bitTorrentClient  DownloadComplete_Test:vector  ETV
attr source BitTorrentClient_DownloadComplete_Test
attr title "Descargas completas (prueba), vector"
145	121349 79 259437794 1239359918 259201 260987.187091216435 2 259201 260987.18709122 520188.18709122 135299470226.79
vector 147  BasicTopology.peer[70].bitTorrentApp.bitTorrentClient  DownloadComplete_Test:vector  ETV
attr source BitTorrentClient_DownloadComplete_Test
attr title "Descargas completas (prueba), vector"
147	121428 78 259437795 589633017 259201 260269.056459212332 2 259201 260269.05645921 519470.05645921 134925140151.17
vector 149  BasicTopology.peer[71].bitTorrentApp.bitTorrentClient  DownloadComplete_Test:vector  ETV
attr source BitTorrentClient_DownloadComplete_Test
attr title "Descargas completas (prueba), vector"
149	121506 78 259437796 981304272 259201 260755.095162047352 2 259201 260755.09516205 519956.09516205 135178378053.97
vector 151  BasicTopology.peer[72].bitTorrentApp.bitTorrentClient  DownloadComplete_Test:vector  ETV
attr source BitTorrentClient_DownloadComplete_Test
attr title "Descargas completas (prueba), vector"
151	121584 79 259437797 1024189781 259201 260795.610652717886 2 259201 260795.61065272 519996.61065272 135199508936.73
vector 153  BasicTopology.peer[73].bitTorrentApp.bitTorrentClient  DownloadComplete_Test:vector  ETV
attr source BitTorrentClient_DownloadComplete_Test
attr title "Descargas completas (prueba), vector"
153	121663 79 259437798 1073506492 259201 260832.199626134093 2 259201 260832.19962613 520033.19962613 135218594762.81
vector 155  BasicTopology.peer[74].bitTorrentApp.bitTorrentClient  DownloadComplete_Test:vector  ETV
attr source BitTorrentClient_DownloadComplete_Test
attr title "Descargas completas (prueba), vector"
155	121742 78 259437799 648279478 259201 260330.072705370246 2 259201 260330.07270537 519531.07270537 134956905155.78
vector 157  BasicTopology.peer[75].bitTorrentApp.bitTorrentClient  DownloadComplete_Test:vector  ETV
attr source BitTorrentClient_DownloadComplete_Test
attr title "Descargas completas (prueba), vector"
157	121820 78 259437800 835386756 259201 260611.367994728514 2 259201 260611.36799473 519812.36799473 135103443529.08
vector 159  BasicTopology.peer[76].bitTorrentApp.bitTorrentClient  DownloadComplete_Test:vector  ETV
attr source BitTorrentClient_DownloadComplete_Test
attr title "Descargas completas (prueba), vector"
159	121898 78 259437801 963302251 259201 260737.479655232107 2 259201 260737.47965523 519938.47965523 135169191697.96
vector 161  BasicTopology.peer[77].bitTorrentApp.bitTorrentClient  DownloadComplete_Test:vector  ETV
attr source BitTorrentClient_DownloadComplete_Test
attr title "Descargas completas (prueba), vector"
161	121976 79 259437802 1240219343 259201 260990.101662872912 2 259201 260990.10166287 520191.10166287 135300991567
vector 163  BasicTopology.peer[78].bitTorrentApp.bitTorrentClient  DownloadComplete_Test:vector  ETV
attr source BitTorrentClient_DownloadComplete_Test
attr title "Descargas completas (prueba), vector"
163	122055 79 259437803 1242377182 259201 260995.802273294406 2 259201 260995.80227329 520196.80227329 135303967205.28
vector 165  BasicTopology.peer[79].bitTorrentApp.bitTorrentClient  DownloadComplete_Test:vector  ETV
attr source BitTorrentClient_DownloadComplete_Test
attr title "Descargas completas (prueba), vector"
165	122134 78 259437804 987505742 259201 260760.652539577093 2 259201 260760.65253958 519961.65253958 135181276313.87
vector 167  BasicTopology.peer[80].bitTorrentApp.bitTorrentClient  DownloadComplete_Test:vector  ETV
attr source BitTorrentClient_DownloadComplete_Test
attr title "Descargas completas (prueba), vector"
167	122212 79 259437805 1177965021 259201 260915.461378745619 2 259201 260915.46137875 520116.46137875 135262036387.49
vector 169  BasicTopology.peer[81].bitTorrentApp.bitTorrentClient  DownloadComplete_Test:vector  ETV
attr source BitTorrentClient_DownloadComplete_Test
attr title "Descargas completas (prueba), vector"
169	122291 79 259437806 1247282293 259201 261004.572339068596 2 259201 261004.57233907 520205.57233907 135308545182.9
vector 171  BasicTopology.peer[82].bitTorrentApp.bitTorrentClient  DownloadComplete_Test:vector  ETV
attr source BitTorrentClient_DownloadComplete_Test
attr title "Descargas completas (prueba), vector"
171	122370 77 259437807 637327677 259201 260316.004784903434 2 259201 260316.0047849 519517.0047849 134949580748.17
vector 173  BasicTopology.peer[83].bitTorrentApp.bitTorrentClient  DownloadComplete_Test:vector  ETV
attr source BitTorrentClient_DownloadComplete_Test
attr title "Descargas completas (prueba), vector"
173	122447 78 259437808 653643786 259201 260337.137508723868 2 259201 260337.13750872 519538.13750872 134960583567.23
vector 175  BasicTopology.peer[84].bitTorrentApp.bitTorrentClient  DownloadComplete_Test:vector  ETV
attr source BitTorrentClient_DownloadComplete_Test
attr title "Descargas completas (prueba), vector"
175	122525 78 259437809 266466291 259201 259289.903694568485 2 259201 259289.90369457 518490.90369457 134416412558.94
vector 177  BasicTopology.peer[85].bitTorrentApp.bitTorrentClient  DownloadComplete_Test:vector  ETV
attr source BitTorrentClient_DownloadComplete_Test
attr title "Descargas completas (prueba), vector"
177	122603 79 259437810 1250065188 259201 261018.381045445776 2 259201 261018.38104545 520219.38104545 135315753644.59
vector 179  BasicTopology.peer[86].bitTorrentApp.bitTorrentClient  DownloadComplete_Test:vector  ETV
attr source BitTorrentClient_DownloadComplete_Test
attr title "Descargas completas (prueba), vector"
179	122682 78 259437811 987412036 259201 260760.576381087741 2 259201 260760.57638109 519961.57638109 135181236595.6
vector 181  BasicTopology.peer[87].bitTorrentApp.bitTorrentClient  DownloadComplete_Test:vector  ETV
attr source BitTorrentClient_DownloadComplete_Test
attr title "Descargas completas (prueba), vector"
181	122760 77 259437812 688484437 259201 260418.890812795227 2 259201 260418.8908128 519619.8908128 135003157093.17
vector 183  BasicTopology.peer[88].bitTorrentApp.bitTorrentClient  DownloadComplete_Test:vector  ETV
attr source BitTorrentClient_DownloadComplete_Test
attr title "Descargas completas (prueba), vector"
183	122837 79 259437813 1233339180 259201 260977.932318143431 2 259201 260977.93231814 520178.93231814 135294639558.05
vector 185  BasicTopology.peer[89].bitTorrentApp.bitTorrentClient  DownloadComplete_Test:vector  ETV
attr source BitTorrentClient_DownloadComplete_Test
attr title "Descargas completas (prueba), vector"
185	122916 79 259437814 1247543614 259201 261005.394276524644 2 259201 261005.39427652 520206.39427652 135308974242.44
vector 187  BasicTopology.peer[90].bitTorrentApp.bitTorrentClient  DownloadComplete_Test:vector  ETV
attr source BitTorrentClient_DownloadComplete_Test
attr title "Descargas completas (prueba), vector"
187	122995 78 259437815 955424287 259201 260732.021503116307 2 259201 260732.02150312 519933.02150312 135166345438.1