file 415058 1593887686                                          
version 2
run Test-4-20200526-14:52:21-7030
attr configname Test
attr datetime 20200526-14:52:21
attr experiment "\"Simulation Test\""
attr inifile BasicConfig.ini
attr iterationvars ""
attr iterationvars2 $repetition=4
attr measurement "\"Peers: $peers, Rate: $rate\""
attr network BasicTopology
attr processid 7030
attr repetition 4
attr replication #4
attr resultdir results
attr runnumber 4
attr seedset 4
vector 3  BasicTopology.peer[1].bitTorrentApp.bitTorrentClient  DownloadComplete_Test:vector  ETV
attr source BitTorrentClient_DownloadComplete_Test
attr title "Descargas completas (prueba), vector"
3	21027 64 103 40128435 36001 36068.065477378084 2 36001 36068.065477378 72069.065477378 2596977348.2804
vector 5  BasicTopology.peer[2].bitTorrentApp.bitTorrentClient  DownloadComplete_Test:vector  ETV
attr source BitTorrentClient_DownloadComplete_Test
attr title "Descargas completas (prueba), vector"
5	21091 64 104 69714298 36001 36122.264708902025 2 36001 36122.264708902 72123.264708902 2600890008.7
vector 7  BasicTopology.peer[3].bitTorrentApp.bitTorrentClient  DownloadComplete_Test:vector  ETV
attr source BitTorrentClient_DownloadComplete_Test
attr title "Descargas completas (prueba), vector"
7	21155 64 105 61000816 36001 36104.035211363317 2 36001 36104.035211363 72105.035211363 2599573359.5433
vector 9  BasicTopology.peer[4].bitTorrentApp.bitTorrentClient  DownloadComplete_Test:vector  ETV
attr source BitTorrentClient_DownloadComplete_Test
attr title "Descargas completas (prueba), vector"
9	21219 63 106 65985753 36001 36114.207669279534 2 36001 36114.20766928 72115.20766928 2600307996.5799
vector 11  BasicTopology.peer[5].bitTorrentApp.bitTorrentClient  DownloadComplete_Test:vector  ETV
attr source BitTorrentClient_DownloadComplete_Test
attr title "Descargas completas (prueba), vector"
11	21282 66 107 76594343 36001 36162.775128967539 2 36001 36162.775128968 72163.775128968 2603818306.0283
vector 13  BasicTopology.peer[6].bitTorrentApp.bitTorrentClient  DownloadComplete_Test:vector  ETV
attr source BitTorrentClient_DownloadComplete_Test
attr title "Descargas completas (prueba), vector"
13	21348 66 108 75689092 36001 36150.102790968023 2 36001 36150.102790968 72151.102790968 2602901932.7976
vector 15  BasicTopology.peer[7].bitTorrentApp.bitTorrentClient  DownloadComplete_Test:vector  ETV
attr source BitTorrentClient_DownloadComplete_Test
attr title "Descargas completas (prueba), vector"
15	21414 66 109 75820344 36001 36151.293987121002 2 36001 36151.293987121 72152.293987121 2602988057.9433
vector 17  BasicTopology.peer[8].bitTorrentApp.bitTorrentClient  DownloadComplete_Test:vector  ETV
attr source BitTorrentClient_DownloadComplete_Test
attr title "Descargas completas (prueba), vector"
17	21480 66 110 73167441 36001 36130.561889722803 2 36001 36130.561889723 72131.561889723 2601489503.4671
vector 19  BasicTopology.peer[9].bitTorrentApp.bitTorrentClient  DownloadComplete_Test:vector  ETV
attr source BitTorrentClient_DownloadComplete_Test
attr title "Descargas completas (prueba), vector"
19	21546 66 111 73517591 36001 36131.380175354761 2 36001 36131.380175355 72132.380175355 2601548634.376
vector 21  BasicTopology.peer[10].bitTorrentApp.bitTorrentClient  DownloadComplete_Test:vector  ETV
attr source BitTorrentClient_DownloadComplete_Test
attr title "Descargas completas (prueba), vector"
21	21612 66 112 68061276 36001 36118.612485232624 2 36001 36118.612485233 72119.612485233 2600626168.8584
vector 23  BasicTopology.peer[11].bitTorrentApp.bitTorrentClient  DownloadComplete_Test:vector  ETV
attr source BitTorrentClient_DownloadComplete_Test
attr title "Descargas completas (prueba), vector"
23	21678 66 113 74252788 36001 36134.163994155288 2 36001 36134.163994155 72135.163994155 2601749808.5565
vector 25  BasicTopology.peer[12].bitTorrentApp.bitTorrentClient  DownloadComplete_Test:vector  ETV
attr source BitTorrentClient_DownloadComplete_Test
attr title "Descargas completas (prueba), vector"
25	21744 66 114 72929380 36001 36130.104745759149 2 36001 36130.104745759 72131.104745759 2601456469.9395
vector 27  BasicTopology.peer[13].bitTorrentApp.bitTorrentClient  DownloadComplete_Test:vector  ETV
attr source BitTorrentClient_DownloadComplete_Test
attr title "Descargas completas (prueba), vector"
27	21810 66 115 73992290 36001 36133.364099556432 2 36001 36133.364099556 72134.364099556 2601692002.1511
vector 29  BasicTopology.peer[14].bitTorrentApp.bitTorrentClient  DownloadComplete_Test:vector  ETV
attr source BitTorrentClient_DownloadComplete_Test
attr title "Descargas completas (prueba), vector"
29	21876 64 116 71949232 36001 36127.3835475315 2 36001 36127.383547532 72128.383547532 2601259842.9905
vector 31  BasicTopology.peer[15].bitTorrentApp.bitTorrentClient  DownloadComplete_Test:vector  ETV
attr source BitTorrentClient_DownloadComplete_Test
attr title "Descargas completas (prueba), vector"
31	21940 66 117 74708445 36001 36135.223538648849 2 36001 36135.223538649 72136.223538649 2601826381.1881
vector 33  BasicTopology.peer[16].bitTorrentApp.bitTorrentClient  DownloadComplete_Test:vector  ETV
attr source BitTorrentClient_DownloadComplete_Test
attr title "Descargas completas (prueba), vector"
33	22006 66 118 67021744 36001 36116.459467801804 2 36001 36116.459467802 72117.459467802 2600470645.4894
vector 35  BasicTopology.peer[17].bitTorrentApp.bitTorrentClient  DownloadComplete_Test:vector  ETV
attr source BitTorrentClient_DownloadComplete_Test
attr title "Descargas completas (prueba), vector"
35	22072 66 119 68609007 36001 36119.926566497462 2 36001 36119.926566497 72120.926566497 2600721096.1691
vector 37  BasicTopology.peer[18].bitTorrentApp.bitTorrentClient  DownloadComplete_Test:vector  ETV
attr source BitTorrentClient_DownloadComplete_Test
attr title "Descargas completas (prueba), vector"
37	22138 66 120 77621191 36001 36305.618614642881 2 36001 36305.618614643 72306.618614643 2614169943.9919
vector 39  BasicTopology.peer[19].bitTorrentApp.bitTorrentClient  DownloadComplete_Test:vector  ETV
attr source BitTorrentClient_DownloadComplete_Test
attr title "Descargas completas (prueba), vector"
39	22204 66 121 74429996 36001 36134.467541697108 2 36001 36134.467541697 72135.467541697 2601771745.522
vector 41  BasicTopology.peer[20].bitTorrentApp.bitTorrentClient  DownloadComplete_Test:vector  ETV
attr source BitTorrentClient_DownloadComplete_Test
attr title "Descargas completas (prueba), vector"
41	22270 66 122 19904535 36001 36036.340919394253 2 36001 36036.340919394 72037.340919394 2594689867.8588
vector 43  BasicTopology.peer[21].bitTorrentApp.bitTorrentClient  DownloadComplete_Test:vector  ETV
attr source BitTorrentClient_DownloadComplete_Test
attr title "Descargas completas (prueba), vector"
43	22336 66 123 74181111 36001 36133.830385576021 2 36001 36133.830385576 72134.830385576 2601725699.3336
vector 45  BasicTopology.peer[22].bitTorrentApp.bitTorrentClient  DownloadComplete_Test:vector  ETV
attr source BitTorrentClient_DownloadComplete_Test
attr title "Descargas completas (prueba), vector"
45	22402 66 124 54628173 36001 36091.635892905885 2 36001 36091.635892906 72092.635892906 2598678182.4261
vector 47  BasicTopology.peer[23].bitTorrentApp.bitTorrentClient  DownloadComplete_Test:vector  ETV
attr source BitTorrentClient_DownloadComplete_Test
attr title "Descargas completas (prueba), vector"
47	22468 66 125 57285297 36001 36096.755405702468 2 36001 36096.755405702 72097.755405702 2599047751.8191
vector 49  BasicTopology.peer[24].bitTorrentApp.bitTorrentClient  DownloadComplete_Test:vector  ETV
attr source BitTorrentClient_DownloadComplete_Test
attr title "Descargas completas (prueba), vector"
49	22534 66 126 66454710 36001 36115.116706191529 2 36001 36115.116706192 72116.116706192 2600373655.7019
vector 833  BasicTopology.peer[0].bitTorrentApp.bitTorrentClient.contentManager_26  TotalBytesUploaded:vector  ETV
attr source ContentManager_TotalBytesUploaded
attr title "Total of Bytes Uploaded, vector"
attr unit B
833	22600 17823 145974 75530768 36001.132301002298 36149.74453448624 455 16384 7454720 1699676160 8.4563557403853e+15
vector 872  BasicTopology.peer[5].bitTorrentApp.bitTorrentClient.contentManager_26  TotalBytesDownloaded:vector  ETV
attr source ContentManager_TotalBytesDownloaded
attr title "Total of Bytes Downloaded, vector"
attr unit B
872	123257 7572 518770 76594343 36002.722946657473 36162.775128967539 192 16384 3145728 303562752 6.3827508985856e+14
vector 840  BasicTopology.peer[1].bitTorrentApp.bitTorrentClient.contentManager_26  TotalBytesDownloaded:vector  ETV
attr source ContentManager_TotalBytesDownloaded
attr title "Total of Bytes Downloaded, vector"
attr unit B
840	41239 7492 540397 40128435 36002.783342791452 36068.065477378084 192 16384 3145728 303562752 6.3827508985856e+14
vector 992  BasicTopology.peer[20].bitTorrentApp.bitTorrentClient.contentManager_26  TotalBytesDownloaded:vector  ETV
attr source ContentManager_TotalBytesDownloaded
attr title "Total of Bytes Downloaded, vector"
attr unit B
992	335389 7480 654744 19904535 36003.947394521552 36036.340919394253 192 16384 3145728 303562752 6.3827508985856e+14
vector 839  BasicTopology.peer[1].bitTorrentApp.bitTorrentClient.contentManager_26  PiecesDownloaded:vector  ETV
attr source ContentManager_PieceDownloaded
attr title "Pieces Downloaded, vector"
839	40423 816 658409 40128435 36003.957641987834 36068.065477378084 24 0 23 276 4324
vector 841  BasicTopology.peer[1].bitTorrentApp.bitTorrentClient.contentManager_26  TotalBytesUploaded:vector  ETV
attr source ContentManager_TotalBytesUploaded
attr title "Total of Bytes Uploaded, vector"
attr unit B
841	48731 17155 707634 71052502 36004.018248030287 36125.511845119416 436 16384 7143424 1560838144 7.4416766960271e+15
vector 856  BasicTopology.peer[3].bitTorrentApp.bitTorrentClient.contentManager_26  TotalBytesDownloaded:vector  ETV
attr source ContentManager_TotalBytesDownloaded
attr title "Total of Bytes Downloaded, vector"
attr unit B
856	85031 7529 748175 61000816 36004.051340748182 36104.035211363317 192 16384 3145728 303562752 6.3827508985856e+14
vector 991  BasicTopology.peer[20].bitTorrentApp.bitTorrentClient.contentManager_26  PiecesDownloaded:vector  ETV
attr source ContentManager_PieceDownloaded
attr title "Pieces Downloaded, vector"
991	334573 816 1158820 19904535 36005.341770243283 36036.340919394253 24 0 23 276 4324
vector 993  BasicTopology.peer[20].bitTorrentApp.bitTorrentClient.contentManager_26  TotalBytesUploaded:vector  ETV
attr source ContentManager_TotalBytesUploaded
attr title "Total of Bytes Uploaded, vector"
attr unit B
993	342869 11128 1163789 65940190 36005.358536465452 36114.12277385246 283 16384 4636672 658407424 2.0388086273802e+15
vector 855  BasicTopology.peer[3].bitTorrentApp.bitTorrentClient.contentManager_26  PiecesDownloaded:vector  ETV
attr source ContentManager_PieceDownloaded
attr title "Pieces Downloaded, vector"
855	84211 820 1185229 61000816 36005.440174473441 36104.035211363317 24 0 23 276 4324
vector 857  BasicTopology.peer[3].bitTorrentApp.bitTorrentClient.contentManager_26  TotalBytesUploaded:vector  ETV
attr source ContentManager_TotalBytesUploaded
attr title "Total of Bytes Uploaded, vector"
attr unit B
857	92560 10801 1217855 62405786 36005.528667298977 36106.930036103776 275 16384 4505600 621772800 1.8710353936384e+15
vector 1008  BasicTopology.peer[22].bitTorrentApp.bitTorrentClient.contentManager_26  TotalBytesDownloaded:vector  ETV
attr source ContentManager_TotalBytesDownloaded
attr title "Total of Bytes Downloaded, vector"
attr unit B
1008	368274 9019 1252335 54628173 36005.712907513703 36091.635892905885 223 16384 3653632 409206784 9.9896214840934e+14
vector 1007  BasicTopology.peer[22].bitTorrentApp.bitTorrentClient.contentManager_26  PiecesDownloaded:vector  ETV
attr source ContentManager_PieceDownloaded
attr title "Pieces Downloaded, vector"
1007	367423 851 1324554 54628173 36005.934605801819 36091.635892905885 24 0 23 276 4324
vector 1009  BasicTopology.peer[22].bitTorrentApp.bitTorrentClient.contentManager_26  TotalBytesUploaded:vector  ETV
attr source ContentManager_TotalBytesUploaded
attr title "Total of Bytes Uploaded, vector"
attr unit B
1009	377293 8543 1357480 61711144 36006.004924368579 36105.4603211954 213 16384 3489792 373407744 8.7078287599206e+14
vector 920  BasicTopology.peer[11].bitTorrentApp.bitTorrentClient.contentManager_26  TotalBytesDownloaded:vector  ETV
attr source ContentManager_TotalBytesDownloaded
attr title "Total of Bytes Downloaded, vector"
attr unit B
920	216977 7568 1371963 74252788 36006.035896574348 36134.163994155288 192 16384 3145728 303562752 6.3827508985856e+14
vector 976  BasicTopology.peer[18].bitTorrentApp.bitTorrentClient.contentManager_26  TotalBytesDownloaded:vector  ETV
attr source ContentManager_TotalBytesDownloaded
attr title "Total of Bytes Downloaded, vector"
attr unit B
976	313802 7974 1436090 77621191 36006.248199512011 36305.618614642881 202 16384 3309568 335921152 7.4300384083968e+14
vector 936  BasicTopology.peer[13].bitTorrentApp.bitTorrentClient.contentManager_26  TotalBytesDownloaded:vector  ETV
attr source ContentManager_TotalBytesDownloaded
attr title "Total of Bytes Downloaded, vector"
attr unit B
936	246489 7577 1673803 73992290 36006.979711489327 36133.364099556432 192 16384 3145728 303562752 6.3827508985856e+14
vector 880  BasicTopology.peer[6].bitTorrentApp.bitTorrentClient.contentManager_26  TotalBytesDownloaded:vector  ETV
attr source ContentManager_TotalBytesDownloaded
attr title "Total of Bytes Downloaded, vector"
attr unit B
880	141434 7577 1889159 75689092 36007.363766117644 36150.102790968023 192 16384 3145728 303562752 6.3827508985856e+14
vector 864  BasicTopology.peer[4].bitTorrentApp.bitTorrentClient.contentManager_26  TotalBytesDownloaded:vector  ETV
attr source ContentManager_TotalBytesDownloaded
attr title "Total of Bytes Downloaded, vector"
attr unit B
864	104181 7959 1912172 66582895 36007.40034230184 36115.42027540846 202 16384 3309568 335921152 7.4300384083968e+14
vector 871  BasicTopology.peer[5].bitTorrentApp.bitTorrentClient.contentManager_26  PiecesDownloaded:vector  ETV
attr source ContentManager_PieceDownloaded
attr title "Pieces Downloaded, vector"
871	122434 823 2154684 76594343 36007.942272669076 36162.775128967539 24 0 23 276 4324
vector 873  BasicTopology.peer[5].bitTorrentApp.bitTorrentClient.contentManager_26  TotalBytesUploaded:vector  ETV
attr source ContentManager_TotalBytesUploaded
attr title "Total of Bytes Uploaded, vector"
attr unit B
873	130829 9778 2183125 73395736 36007.986465281848 36130.993824692864 249 16384 4079616 509952000 1.389723910144e+15
vector 904  BasicTopology.peer[9].bitTorrentApp.bitTorrentClient.contentManager_26  TotalBytesDownloaded:vector  ETV
attr source ContentManager_TotalBytesDownloaded
attr title "Total of Bytes Downloaded, vector"
attr unit B
904	186858 7574 2230349 73517591 36008.042254655121 36131.380175354761 192 16384 3145728 303562752 6.3827508985856e+14
vector 1016  BasicTopology.peer[23].bitTorrentApp.bitTorrentClient.contentManager_26  TotalBytesDownloaded:vector  ETV
attr source ContentManager_TotalBytesDownloaded
attr title "Total of Bytes Downloaded, vector"
attr unit B
1016	386684 7748 2280645 57285297 36008.128516113153 36096.755405702468 192 16384 3145728 303562752 6.3827508985856e+14
vector 903  BasicTopology.peer[9].bitTorrentApp.bitTorrentClient.contentManager_26  PiecesDownloaded:vector  ETV
attr source ContentManager_PieceDownloaded
attr title "Pieces Downloaded, vector"
903	186034 824 2475922 73517591 36008.436529117143 36131.380175354761 24 0 23 276 4324
vector 905  BasicTopology.peer[9].bitTorrentApp.bitTorrentClient.contentManager_26  TotalBytesUploaded:vector  ETV
attr source ContentManager_TotalBytesUploaded
attr title "Total of Bytes Uploaded, vector"
attr unit B
905	194432 1558 2524443 35921026 36008.504432937993 36061.816159723982 41 16384 671744 14106624 6394400997376
vector 960  BasicTopology.peer[16].bitTorrentApp.bitTorrentClient.contentManager_26  TotalBytesDownloaded:vector  ETV
attr source ContentManager_TotalBytesDownloaded
attr title "Total of Bytes Downloaded, vector"
attr unit B
960	287960 7583 2659735 67021744 36008.748422188617 36116.459467801804 192 16384 3145728 303562752 6.3827508985856e+14
vector 944  BasicTopology.peer[14].bitTorrentApp.bitTorrentClient.contentManager_26  TotalBytesDownloaded:vector  ETV
attr source ContentManager_TotalBytesDownloaded
attr title "Total of Bytes Downloaded, vector"
attr unit B
944	261161 7557 2831102 71949232 36009.256578438417 36127.3835475315 192 16384 3145728 303562752 6.3827508985856e+14
vector 919  BasicTopology.peer[11].bitTorrentApp.bitTorrentClient.contentManager_26  PiecesDownloaded:vector  ETV
attr source ContentManager_PieceDownloaded
attr title "Pieces Downloaded, vector"
919	216152 825 2870568 74252788 36009.367975551138 36134.163994155288 24 0 23 276 4324
vector 921  BasicTopology.peer[11].bitTorrentApp.bitTorrentClient.contentManager_26  TotalBytesUploaded:vector  ETV
attr source ContentManager_TotalBytesUploaded
attr title "Total of Bytes Uploaded, vector"
attr unit B
921	224545 5931 2885395 65603359 36009.430873022032 36113.476176493553 151 16384 2473984 188022784 3.1113709459866e+14
vector 888  BasicTopology.peer[7].bitTorrentApp.bitTorrentClient.contentManager_26  TotalBytesDownloaded:vector  ETV
attr source ContentManager_TotalBytesDownloaded
attr title "Total of Bytes Downloaded, vector"
attr unit B
888	158091 7894 2907285 75820344 36009.484583026531 36151.293987121002 200 16384 3276800 329318400 7.212055396352e+14
vector 1015  BasicTopology.peer[23].bitTorrentApp.bitTorrentClient.contentManager_26  PiecesDownloaded:vector  ETV
attr source ContentManager_PieceDownloaded
attr title "Pieces Downloaded, vector"
1015	385836 848 2936397 57285297 36009.552430710553 36096.755405702468 24 0 23 276 4324
vector 1017  BasicTopology.peer[23].bitTorrentApp.bitTorrentClient.contentManager_26  TotalBytesUploaded:vector  ETV
attr source ContentManager_TotalBytesUploaded
attr title "Total of Bytes Uploaded, vector"
attr unit B
1017	394432 9021 2969410 56224013 36009.598145481054 36094.535845766085 224 16384 3670016 412876800 1.0124311658496e+15
vector 887  BasicTopology.peer[7].bitTorrentApp.bitTorrentClient.contentManager_26  PiecesDownloaded:vector  ETV
attr source ContentManager_PieceDownloaded
attr title "Pieces Downloaded, vector"
887	157265 826 3052725 75820344 36009.732596817622 36151.293987121002 24 0 23 276 4324
vector 889  BasicTopology.peer[7].bitTorrentApp.bitTorrentClient.contentManager_26  TotalBytesUploaded:vector  ETV
attr source ContentManager_TotalBytesUploaded
attr title "Total of Bytes Uploaded, vector"
attr unit B
889	165985 7296 3063754 38113152 36009.749121031374 36064.953903236558 186 16384 3047424 284934144 5.8043288623514e+14
vector 848  BasicTopology.peer[2].bitTorrentApp.bitTorrentClient.contentManager_26  TotalBytesDownloaded:vector  ETV
attr source ContentManager_TotalBytesDownloaded
attr title "Total of Bytes Downloaded, vector"
attr unit B
848	66708 7564 3106032 69714298 36009.819652073159 36122.264708902025 192 16384 3145728 303562752 6.3827508985856e+14
vector 896  BasicTopology.peer[8].bitTorrentApp.bitTorrentClient.contentManager_26  TotalBytesDownloaded:vector  ETV
attr source ContentManager_TotalBytesDownloaded
attr title "Total of Bytes Downloaded, vector"
attr unit B
896	174108 7885 3370540 73167441 36010.19011148565 36130.561889722803 200 16384 3276800 329318400 7.212055396352e+14
vector 895  BasicTopology.peer[8].bitTorrentApp.bitTorrentClient.contentManager_26  PiecesDownloaded:vector  ETV
attr source ContentManager_PieceDownloaded
attr title "Pieces Downloaded, vector"
895	173281 827 3583099 73167441 36010.536307889133 36130.561889722803 24 0 23 276 4324
vector 879  BasicTopology.peer[6].bitTorrentApp.bitTorrentClient.contentManager_26  PiecesDownloaded:vector  ETV
attr source ContentManager_PieceDownloaded
attr title "Pieces Downloaded, vector"
879	140607 827 3726903 75689092 36010.782115508497 36150.102790968023 24 0 23 276 4324
vector 928  BasicTopology.peer[12].bitTorrentApp.bitTorrentClient.contentManager_26  TotalBytesDownloaded:vector  ETV
attr source ContentManager_TotalBytesDownloaded
attr title "Total of Bytes Downloaded, vector"
attr unit B
928	231301 7573 3742861 72929380 36010.801878551522 36130.104745759149 192 16384 3145728 303562752 6.3827508985856e+14
vector 881  BasicTopology.peer[6].bitTorrentApp.bitTorrentClient.contentManager_26  TotalBytesUploaded:vector  ETV
attr source ContentManager_TotalBytesUploaded
attr title "Total of Bytes Uploaded, vector"
attr unit B
881	149011 8254 3743358 75747704 36010.802512427532 36150.232182897226 210 16384 3440640 362987520 8.3458864971776e+14
vector 935  BasicTopology.peer[13].bitTorrentApp.bitTorrentClient.contentManager_26  PiecesDownloaded:vector  ETV
attr source ContentManager_PieceDownloaded
attr title "Pieces Downloaded, vector"
935	245663 826 3954022 73992290 36011.273900079707 36133.364099556432 24 0 23 276 4324
vector 937  BasicTopology.peer[13].bitTorrentApp.bitTorrentClient.contentManager_26  TotalBytesUploaded:vector  ETV
attr source ContentManager_TotalBytesUploaded
attr title "Total of Bytes Uploaded, vector"
attr unit B
937	254066 6272 3982060 56035836 36011.350237960324 36094.106092863402 160 16384 2621440 211025920 3.6994700804096e+14
vector 1024  BasicTopology.peer[24].bitTorrentApp.bitTorrentClient.contentManager_26  TotalBytesDownloaded:vector  ETV
attr source ContentManager_TotalBytesDownloaded
attr title "Total of Bytes Downloaded, vector"
attr unit B
1024	404302 7760 4150775 66454710 36011.691515011542 36115.116706191529 192 16384 3145728 303562752 6.3827508985856e+14
vector 968  BasicTopology.peer[17].bitTorrentApp.bitTorrentClient.contentManager_26  TotalBytesDownloaded:vector  ETV
attr source ContentManager_TotalBytesDownloaded
attr title "Total of Bytes Downloaded, vector"
attr unit B
968	299491 7899 4369600 69011800 36012.011801439601 36120.748731344746 200 16384 3276800 329318400 7.212055396352e+14
vector 984  BasicTopology.peer[19].bitTorrentApp.bitTorrentClient.contentManager_26  TotalBytesDownloaded:vector  ETV
attr source ContentManager_TotalBytesDownloaded
attr title "Total of Bytes Downloaded, vector"
attr unit B
984	325722 7734 4640744 74625018 36012.420476120748 36134.824307138905 196 16384 3211264 316309504 6.7889635367322e+14
vector 912  BasicTopology.peer[10].bitTorrentApp.bitTorrentClient.contentManager_26  TotalBytesDownloaded:vector  ETV
attr source ContentManager_TotalBytesDownloaded
attr title "Total of Bytes Downloaded, vector"
attr unit B
912	196819 7575 4695497 68061276 36012.511048452052 36118.612485232624 192 16384 3145728 303562752 6.3827508985856e+14
vector 983  BasicTopology.peer[19].bitTorrentApp.bitTorrentClient.contentManager_26  PiecesDownloaded:vector  ETV
attr source ContentManager_PieceDownloaded
attr title "Pieces Downloaded, vector"
983	324901 821 4784035 74429996 36012.631992849273 36134.467541697108 24 0 23 276 4324
vector 967  BasicTopology.peer[17].bitTorrentApp.bitTorrentClient.contentManager_26  PiecesDownloaded:vector  ETV
attr source ContentManager_PieceDownloaded
attr title "Pieces Downloaded, vector"
967	298663 828 5238659 68609007 36013.344309115518 36119.926566497462 24 0 23 276 4324
vector 847  BasicTopology.peer[2].bitTorrentApp.bitTorrentClient.contentManager_26  PiecesDownloaded:vector  ETV
attr source ContentManager_PieceDownloaded
attr title "Pieces Downloaded, vector"
847	65886 822 5399642 69714298 36013.63226496965 36122.264708902025 24 0 23 276 4324
vector 952  BasicTopology.peer[15].bitTorrentApp.bitTorrentClient.contentManager_26  TotalBytesDownloaded:vector  ETV
attr source ContentManager_TotalBytesDownloaded
attr title "Total of Bytes Downloaded, vector"
attr unit B
952	276229 7581 5421777 74708445 36013.667566549563 36135.223538648849 192 16384 3145728 303562752 6.3827508985856e+14
vector 863  BasicTopology.peer[4].bitTorrentApp.bitTorrentClient.contentManager_26  PiecesDownloaded:vector  ETV
attr source ContentManager_PieceDownloaded
attr title "Pieces Downloaded, vector"
863	103361 820 5655079 65985753 36014.111329377989 36114.207669279534 24 0 23 276 4324
vector 943  BasicTopology.peer[14].bitTorrentApp.bitTorrentClient.contentManager_26  PiecesDownloaded:vector  ETV
attr source ContentManager_PieceDownloaded
attr title "Pieces Downloaded, vector"
943	260338 823 5730077 71949232 36014.229095901259 36127.3835475315 24 0 23 276 4324
vector 985  BasicTopology.peer[19].bitTorrentApp.bitTorrentClient.contentManager_26  TotalBytesUploaded:vector  ETV
attr source ContentManager_TotalBytesUploaded
attr title "Total of Bytes Uploaded, vector"
attr unit B
985	333456 1117 6298431 61639038 36015.271912914321 36105.316356706156 29 16384 475136 7127040 2296465326080
vector 865  BasicTopology.peer[4].bitTorrentApp.bitTorrentClient.contentManager_26  TotalBytesUploaded:vector  ETV
attr source ContentManager_TotalBytesUploaded
attr title "Total of Bytes Uploaded, vector"
attr unit B
865	112140 10294 6567814 56936769 36015.712108370282 36096.029188311053 261 16384 4276224 560185344 1.6000447005327e+15
vector 1000  BasicTopology.peer[21].bitTorrentApp.bitTorrentClient.contentManager_26  TotalBytesDownloaded:vector  ETV
attr source ContentManager_TotalBytesDownloaded
attr title "Total of Bytes Downloaded, vector"
attr unit B
1000	354822 7772 6603551 74181111 36015.811311295065 36133.830385576021 192 16384 3145728 303562752 6.3827508985856e+14
vector 959  BasicTopology.peer[16].bitTorrentApp.bitTorrentClient.contentManager_26  PiecesDownloaded:vector  ETV
attr source ContentManager_PieceDownloaded
attr title "Pieces Downloaded, vector"
959	287133 827 6646273 67021744 36015.880133222996 36116.459467801804 24 0 23 276 4324
vector 969  BasicTopology.peer[17].bitTorrentApp.bitTorrentClient.contentManager_26  TotalBytesUploaded:vector  ETV
attr source ContentManager_TotalBytesUploaded
attr title "Total of Bytes Uploaded, vector"
attr unit B
969	307390 5584 6819536 77521000 36016.218640711173 36303.368742315225 142 16384 2326528 166346752 2.5891539255296e+14
vector 999  BasicTopology.peer[21].bitTorrentApp.bitTorrentClient.contentManager_26  PiecesDownloaded:vector  ETV
attr source ContentManager_PieceDownloaded
attr title "Pieces Downloaded, vector"
999	353997 825 7336995 74181111 36017.088415525542 36133.830385576021 24 0 23 276 4324
vector 1001  BasicTopology.peer[21].bitTorrentApp.bitTorrentClient.contentManager_26  TotalBytesUploaded:vector  ETV
attr source ContentManager_TotalBytesUploaded
attr title "Total of Bytes Uploaded, vector"
attr unit B
1001	362594 4829 7351662 76410435 36017.10888457642 36162.266517367367 121 16384 1982464 120930304 1.6048709015962e+14
vector 911  BasicTopology.peer[10].bitTorrentApp.bitTorrentClient.contentManager_26  PiecesDownloaded:vector  ETV
attr source ContentManager_PieceDownloaded
attr title "Pieces Downloaded, vector"
911	195990 829 8169750 68061276 36018.375821473507 36118.612485232624 24 0 23 276 4324
vector 913  BasicTopology.peer[10].bitTorrentApp.bitTorrentClient.contentManager_26  TotalBytesUploaded:vector  ETV
attr source ContentManager_TotalBytesUploaded
attr title "Total of Bytes Uploaded, vector"
attr unit B
913	204394 11758 8211136 66350952 36018.422938277943 36114.90125582887 297 16384 4866048 725041152 2.3560163898163e+15
vector 1023  BasicTopology.peer[24].bitTorrentApp.bitTorrentClient.contentManager_26  PiecesDownloaded:vector  ETV
attr source ContentManager_PieceDownloaded
attr title "Pieces Downloaded, vector"
1023	403453 849 8553372 66454710 36018.919481390894 36115.116706191529 24 0 23 276 4324
vector 1025  BasicTopology.peer[24].bitTorrentApp.bitTorrentClient.contentManager_26  TotalBytesUploaded:vector  ETV
attr source ContentManager_TotalBytesUploaded
attr title "Total of Bytes Uploaded, vector"
attr unit B
1025	412062 2996 8603060 58212670 36018.982880677751 36098.515170274094 75 16384 1228800 46694400 38507066163200
vector 951  BasicTopology.peer[15].bitTorrentApp.bitTorrentClient.contentManager_26  PiecesDownloaded:vector  ETV
attr source ContentManager_PieceDownloaded
attr title "Pieces Downloaded, vector"
951	275402 827 8788510 74708445 36019.281630553188 36135.223538648849 24 0 23 276 4324
vector 849  BasicTopology.peer[2].bitTorrentApp.bitTorrentClient.contentManager_26  TotalBytesUploaded:vector  ETV
attr source ContentManager_TotalBytesUploaded
attr title "Total of Bytes Uploaded, vector"
attr unit B
849	74272 9939 8846719 69761953 36019.388941727423 36122.343549166178 251 16384 4112384 518160384 1.4234128283075e+15
vector 927  BasicTopology.peer[12].bitTorrentApp.bitTorrentClient.contentManager_26  PiecesDownloaded:vector  ETV
attr source ContentManager_PieceDownloaded
attr title "Pieces Downloaded, vector"
927	230476 825 10105932 72929380 36021.213126653009 36130.104745759149 24 0 23 276 4324
vector 929  BasicTopology.peer[12].bitTorrentApp.bitTorrentClient.contentManager_26  TotalBytesUploaded:vector  ETV
attr source ContentManager_TotalBytesUploaded
attr title "Total of Bytes Uploaded, vector"
attr unit B
929	238874 6789 10174115 70211541 36021.300514334512 36123.735030839349 172 16384 2818048 243761152 4.5928501215232e+14
vector 975  BasicTopology.peer[18].bitTorrentApp.bitTorrentClient.contentManager_26  PiecesDownloaded:vector  ETV
attr source ContentManager_PieceDownloaded
attr title "Pieces Downloaded, vector"
975	312974 828 10442018 77621191 36021.769587312464 36305.618614642881 24 0 23 276 4324
vector 945  BasicTopology.peer[14].bitTorrentApp.bitTorrentClient.contentManager_26  TotalBytesUploaded:vector  ETV
attr source ContentManager_TotalBytesUploaded
attr title "Total of Bytes Uploaded, vector"
attr unit B
945	268718 6684 12118915 74077753 36024.347054397984 36133.516616891998 169 16384 2768896 235356160 4.3573651177472e+14