file 419443 1593887686                                          
version 2
run Test-6-20200526-14:52:42-7048
attr configname Test
attr datetime 20200526-14:52:42
attr experiment "\"Simulation Test\""
attr inifile BasicConfig.ini
attr iterationvars ""
attr iterationvars2 $repetition=6
attr measurement "\"Peers: $peers, Rate: $rate\""
attr network BasicTopology
attr processid 7048
attr repetition 6
attr replication #6
attr resultdir results
attr runnumber 6
attr seedset 6
vector 3  BasicTopology.peer[1].bitTorrentApp.bitTorrentClient  DownloadComplete_Test:vector  ETV
attr source BitTorrentClient_DownloadComplete_Test
attr title "Descargas completas (prueba), vector"
3	20805 64 103 76268131 36001 36131.802404748585 2 36001 36131.802404749 72132.802404749 2601579146.0158
vector 5  BasicTopology.peer[2].bitTorrentApp.bitTorrentClient  DownloadComplete_Test:vector  ETV
attr source BitTorrentClient_DownloadComplete_Test
attr title "Descargas completas (prueba), vector"
5	20869 64 104 64355299 36001 36106.896493871996 2 36001 36106.896493872 72107.896493872 2599779975.4192
vector 7  BasicTopology.peer[3].bitTorrentApp.bitTorrentClient  DownloadComplete_Test:vector  ETV
attr source BitTorrentClient_DownloadComplete_Test
attr title "Descargas completas (prueba), vector"
7	20933 64 105 54595217 36001 36088.143316538617 2 36001 36088.143316539 72089.143316539 2598426089.0351
vector 9  BasicTopology.peer[4].bitTorrentApp.bitTorrentClient  DownloadComplete_Test:vector  ETV
attr source BitTorrentClient_DownloadComplete_Test
attr title "Descargas completas (prueba), vector"
9	20997 64 106 76142860 36001 36131.564067606456 2 36001 36131.564067606 72132.564067606 2601561922.9715
vector 11  BasicTopology.peer[5].bitTorrentApp.bitTorrentClient  DownloadComplete_Test:vector  ETV
attr source BitTorrentClient_DownloadComplete_Test
attr title "Descargas completas (prueba), vector"
11	21061 66 107 71760814 36001 36121.954874904981 2 36001 36121.954874905 72122.954874905 2600867624.9847
vector 13  BasicTopology.peer[6].bitTorrentApp.bitTorrentClient  DownloadComplete_Test:vector  ETV
attr source BitTorrentClient_DownloadComplete_Test
attr title "Descargas completas (prueba), vector"
13	21127 66 108 81953223 36001 36301.347724558275 2 36001 36301.347724558 72302.347724558 2613859847.6193
vector 15  BasicTopology.peer[7].bitTorrentApp.bitTorrentClient  DownloadComplete_Test:vector  ETV
attr source BitTorrentClient_DownloadComplete_Test
attr title "Descargas completas (prueba), vector"
15	21193 66 109 82032196 36001 36303.562165001792 2 36001 36303.562165002 72304.562165002 2614020626.8682
vector 17  BasicTopology.peer[8].bitTorrentApp.bitTorrentClient  DownloadComplete_Test:vector  ETV
attr source BitTorrentClient_DownloadComplete_Test
attr title "Descargas completas (prueba), vector"
17	21259 64 110 77043759 36001 36133.57949421042 2 36001 36133.57949421 72134.57949421 2601707568.0644
vector 19  BasicTopology.peer[9].bitTorrentApp.bitTorrentClient  DownloadComplete_Test:vector  ETV
attr source BitTorrentClient_DownloadComplete_Test
attr title "Descargas completas (prueba), vector"
19	21323 66 111 70755389 36001 36119.777904740596 2 36001 36119.777904741 72120.777904741 2600710356.8878
vector 21  BasicTopology.peer[10].bitTorrentApp.bitTorrentClient  DownloadComplete_Test:vector  ETV
attr source BitTorrentClient_DownloadComplete_Test
attr title "Descargas completas (prueba), vector"
21	21389 66 112 76045888 36001 36131.088862477858 2 36001 36131.088862478 72132.088862478 2601527583.3883
vector 23  BasicTopology.peer[11].bitTorrentApp.bitTorrentClient  DownloadComplete_Test:vector  ETV
attr source BitTorrentClient_DownloadComplete_Test
attr title "Descargas completas (prueba), vector"
23	21455 66 113 76316156 36001 36131.895779174354 2 36001 36131.895779174 72132.895779174 2601585893.5971
vector 25  BasicTopology.peer[12].bitTorrentApp.bitTorrentClient  DownloadComplete_Test:vector  ETV
attr source BitTorrentClient_DownloadComplete_Test
attr title "Descargas completas (prueba), vector"
25	21521 66 114 81286253 36001 36146.353538436642 2 36001 36146.353538437 72147.353538437 2602630875.1257
vector 27  BasicTopology.peer[13].bitTorrentApp.bitTorrentClient  DownloadComplete_Test:vector  ETV
attr source BitTorrentClient_DownloadComplete_Test
attr title "Descargas completas (prueba), vector"
27	21587 66 115 71157873 36001 36120.581857850881 2 36001 36120.581857851 72121.581857851 2600768434.7497
vector 29  BasicTopology.peer[14].bitTorrentApp.bitTorrentClient  DownloadComplete_Test:vector  ETV
attr source BitTorrentClient_DownloadComplete_Test
attr title "Descargas completas (prueba), vector"
29	21653 66 116 78251827 36001 36136.135803368119 2 36001 36136.135803368 72137.135803368 2601892311.7995
vector 31  BasicTopology.peer[15].bitTorrentApp.bitTorrentClient  DownloadComplete_Test:vector  ETV
attr source BitTorrentClient_DownloadComplete_Test
attr title "Descargas completas (prueba), vector"
31	21719 66 117 80164465 36001 36141.181882515971 2 36001 36141.181882516 72142.181882516 2602257028.8651
vector 33  BasicTopology.peer[16].bitTorrentApp.bitTorrentClient  DownloadComplete_Test:vector  ETV
attr source BitTorrentClient_DownloadComplete_Test
attr title "Descargas completas (prueba), vector"
33	21785 66 118 81153091 36001 36146.013501654337 2 36001 36146.013501654 72147.013501654 2602606293.0618
vector 35  BasicTopology.peer[17].bitTorrentApp.bitTorrentClient  DownloadComplete_Test:vector  ETV
attr source BitTorrentClient_DownloadComplete_Test
attr title "Descargas completas (prueba), vector"
35	21851 66 119 76940401 36001 36133.397472932265 2 36001 36133.397472932 72134.397472932 2601694413.9369
vector 37  BasicTopology.peer[18].bitTorrentApp.bitTorrentClient  DownloadComplete_Test:vector  ETV
attr source BitTorrentClient_DownloadComplete_Test
attr title "Descargas completas (prueba), vector"
37	21917 66 120 76663833 36001 36132.691769649155 2 36001 36132.691769649 72133.691769649 2601643415.5205
vector 39  BasicTopology.peer[19].bitTorrentApp.bitTorrentClient  DownloadComplete_Test:vector  ETV
attr source BitTorrentClient_DownloadComplete_Test
attr title "Descargas completas (prueba), vector"
39	21983 66 121 80518140 36001 36142.297679969152 2 36001 36142.297679969 72143.297679969 2602337682.5875
vector 41  BasicTopology.peer[20].bitTorrentApp.bitTorrentClient  DownloadComplete_Test:vector  ETV
attr source BitTorrentClient_DownloadComplete_Test
attr title "Descargas completas (prueba), vector"
41	22049 66 122 72998218 36001 36124.421566143207 2 36001 36124.421566143 72125.421566143 2601045834.4884
vector 43  BasicTopology.peer[21].bitTorrentApp.bitTorrentClient  DownloadComplete_Test:vector  ETV
attr source BitTorrentClient_DownloadComplete_Test
attr title "Descargas completas (prueba), vector"
43	22115 63 123 45751009 36001 36073.872838999648 2 36001 36073.872839 72074.872839 2597396302.6043
vector 45  BasicTopology.peer[22].bitTorrentApp.bitTorrentClient  DownloadComplete_Test:vector  ETV
attr source BitTorrentClient_DownloadComplete_Test
attr title "Descargas completas (prueba), vector"
45	22178 65 124 71833325 36001 36122.096264070455 2 36001 36122.09626407 72123.09626407 2600877839.5107
vector 47  BasicTopology.peer[23].bitTorrentApp.bitTorrentClient  DownloadComplete_Test:vector  ETV
attr source BitTorrentClient_DownloadComplete_Test
attr title "Descargas completas (prueba), vector"
47	22243 66 125 69671791 36001 36117.618698764928 2 36001 36117.618698765 72118.618698765 2600554381.4694
vector 49  BasicTopology.peer[24].bitTorrentApp.bitTorrentClient  DownloadComplete_Test:vector  ETV
attr source BitTorrentClient_DownloadComplete_Test
attr title "Descargas completas (prueba), vector"
49	22309 66 126 75143413 36001 36129.009970433882 2 36001 36129.009970434 72130.009970434 2601377362.4437
vector 833  BasicTopology.peer[0].bitTorrentApp.bitTorrentClient.contentManager_26  TotalBytesUploaded:vector  ETV
attr source ContentManager_TotalBytesUploaded
attr title "Total of Bytes Uploaded, vector"
attr unit B
833	22375 19712 107262 81852106 36001.101671588123 36301.097520438968 502 16384 8224768 2068529152 1.1353411844833e+16
vector 920  BasicTopology.peer[11].bitTorrentApp.bitTorrentClient.contentManager_26  TotalBytesDownloaded:vector  ETV
attr source ContentManager_TotalBytesDownloaded
attr title "Total of Bytes Downloaded, vector"
attr unit B
920	212072 7502 132139 76316156 36001.135719229985 36131.895779174354 192 16384 3145728 303562752 6.3827508985856e+14
vector 919  BasicTopology.peer[11].bitTorrentApp.bitTorrentClient.contentManager_26  PiecesDownloaded:vector  ETV
attr source ContentManager_PieceDownloaded
attr title "Pieces Downloaded, vector"
919	211252 820 482302 76316156 36002.606282214938 36131.895779174354 24 0 23 276 4324
vector 921  BasicTopology.peer[11].bitTorrentApp.bitTorrentClient.contentManager_26  TotalBytesUploaded:vector  ETV
attr source ContentManager_TotalBytesUploaded
attr title "Total of Bytes Uploaded, vector"
attr unit B
921	219574 18000 492325 77300430 36002.623976598344 36134.064404420476 457 16384 7487488 1714634752 8.5682356119142e+15
vector 864  BasicTopology.peer[4].bitTorrentApp.bitTorrentClient.contentManager_26  TotalBytesDownloaded:vector  ETV
attr source ContentManager_TotalBytesDownloaded
attr title "Total of Bytes Downloaded, vector"
attr unit B
864	104541 7573 585779 76142860 36002.79464201073 36131.564067606456 192 16384 3145728 303562752 6.3827508985856e+14
vector 936  BasicTopology.peer[13].bitTorrentApp.bitTorrentClient.contentManager_26  TotalBytesDownloaded:vector  ETV
attr source ContentManager_TotalBytesDownloaded
attr title "Total of Bytes Downloaded, vector"
attr unit B
936	247744 7558 673511 71157873 36003.036901711612 36120.581857850881 192 16384 3145728 303562752 6.3827508985856e+14
vector 984  BasicTopology.peer[19].bitTorrentApp.bitTorrentClient.contentManager_26  TotalBytesDownloaded:vector  ETV
attr source ContentManager_TotalBytesDownloaded
attr title "Total of Bytes Downloaded, vector"
attr unit B
984	324418 8934 1079451 80834971 36004.15371677989 36143.66181140115 226 16384 3702784 420265984 1.0397313201603e+15
vector 904  BasicTopology.peer[9].bitTorrentApp.bitTorrentClient.contentManager_26  TotalBytesDownloaded:vector  ETV
attr source ContentManager_TotalBytesDownloaded
attr title "Total of Bytes Downloaded, vector"
attr unit B
904	185215 7579 1193757 70755389 36004.377890797061 36119.777904740596 192 16384 3145728 303562752 6.3827508985856e+14
vector 935  BasicTopology.peer[13].bitTorrentApp.bitTorrentClient.contentManager_26  PiecesDownloaded:vector  ETV
attr source ContentManager_PieceDownloaded
attr title "Pieces Downloaded, vector"
935	246917 827 1206926 71157873 36004.402155587184 36120.581857850881 24 0 23 276 4324
vector 937  BasicTopology.peer[13].bitTorrentApp.bitTorrentClient.contentManager_26  TotalBytesUploaded:vector  ETV
attr source ContentManager_TotalBytesUploaded
attr title "Total of Bytes Uploaded, vector"
attr unit B
937	255302 9405 1240179 67881708 36004.459594394991 36114.062441023515 240 16384 3932160 473825280 1.244692259799e+15
vector 848  BasicTopology.peer[2].bitTorrentApp.bitTorrentClient.contentManager_26  TotalBytesDownloaded:vector  ETV
attr source ContentManager_TotalBytesDownloaded
attr title "Total of Bytes Downloaded, vector"
attr unit B
848	61566 7865 1451667 64355299 36004.950867934504 36106.896493871996 200 16384 3276800 329318400 7.212055396352e+14
vector 840  BasicTopology.peer[1].bitTorrentApp.bitTorrentClient.contentManager_26  TotalBytesDownloaded:vector  ETV
attr source ContentManager_TotalBytesDownloaded
attr title "Total of Bytes Downloaded, vector"
attr unit B
840	42913 7547 1769901 76268131 36005.732165977858 36131.802404748585 192 16384 3145728 303562752 6.3827508985856e+14
vector 952  BasicTopology.peer[15].bitTorrentApp.bitTorrentClient.contentManager_26  TotalBytesDownloaded:vector  ETV
attr source ContentManager_TotalBytesDownloaded
attr title "Total of Bytes Downloaded, vector"
attr unit B
952	275762 7607 1878918 80164465 36006.011732039892 36141.181882515971 193 16384 3162112 306724864 6.482740421591e+14
vector 951  BasicTopology.peer[15].bitTorrentApp.bitTorrentClient.contentManager_26  PiecesDownloaded:vector  ETV
attr source ContentManager_PieceDownloaded
attr title "Pieces Downloaded, vector"
951	274934 828 1972257 80164465 36006.240365255958 36141.181882515971 24 0 23 276 4324
vector 953  BasicTopology.peer[15].bitTorrentApp.bitTorrentClient.contentManager_26  TotalBytesUploaded:vector  ETV
attr source ContentManager_TotalBytesUploaded
attr title "Total of Bytes Uploaded, vector"
attr unit B
953	283369 5521 1997168 60077621 36006.273494109205 36098.520900199873 141 16384 2310144 164020224 2.5350266001818e+14
vector 1000  BasicTopology.peer[21].bitTorrentApp.bitTorrentClient.contentManager_26  TotalBytesDownloaded:vector  ETV
attr source ContentManager_TotalBytesDownloaded
attr title "Total of Bytes Downloaded, vector"
attr unit B
1000	352236 7752 2088240 45751009 36006.560650193822 36073.872838999648 192 16384 3145728 303562752 6.3827508985856e+14
vector 992  BasicTopology.peer[20].bitTorrentApp.bitTorrentClient.contentManager_26  TotalBytesDownloaded:vector  ETV
attr source ContentManager_TotalBytesDownloaded
attr title "Total of Bytes Downloaded, vector"
attr unit B
992	337761 7582 2192444 72998218 36006.767069572095 36124.421566143207 192 16384 3145728 303562752 6.3827508985856e+14
vector 983  BasicTopology.peer[19].bitTorrentApp.bitTorrentClient.contentManager_26  PiecesDownloaded:vector  ETV
attr source ContentManager_PieceDownloaded
attr title "Pieces Downloaded, vector"
983	323591 827 2239090 80518140 36006.862381993708 36142.297679969152 24 0 23 276 4324
vector 985  BasicTopology.peer[19].bitTorrentApp.bitTorrentClient.contentManager_26  TotalBytesUploaded:vector  ETV
attr source ContentManager_TotalBytesUploaded
attr title "Total of Bytes Uploaded, vector"
attr unit B
985	333352 3581 2285450 76128045 36006.94426440604 36131.533960552432 93 16384 1523712 71614464 73137655906304
vector 839  BasicTopology.peer[1].bitTorrentApp.bitTorrentClient.contentManager_26  PiecesDownloaded:vector  ETV
attr source ContentManager_PieceDownloaded
attr title "Pieces Downloaded, vector"
839	42087 826 2296755 76268131 36006.961031563826 36131.802404748585 24 0 23 276 4324
vector 841  BasicTopology.peer[1].bitTorrentApp.bitTorrentClient.contentManager_26  TotalBytesUploaded:vector  ETV
attr source ContentManager_TotalBytesUploaded
attr title "Total of Bytes Uploaded, vector"
attr unit B
841	50460 10285 2336827 79916068 36007.012077570523 36140.712192134595 262 16384 4292608 564477952 1.6184711839744e+15
vector 856  BasicTopology.peer[3].bitTorrentApp.bitTorrentClient.contentManager_26  TotalBytesDownloaded:vector  ETV
attr source ContentManager_TotalBytesDownloaded
attr title "Total of Bytes Downloaded, vector"
attr unit B
856	86545 8048 2543351 54595217 36007.441789104788 36088.143316538617 204 16384 3342336 342589440 7.6523700748288e+14
vector 880  BasicTopology.peer[6].bitTorrentApp.bitTorrentClient.contentManager_26  TotalBytesDownloaded:vector  ETV
attr source ContentManager_TotalBytesDownloaded
attr title "Total of Bytes Downloaded, vector"
attr unit B
880	141142 8015 2600470 81953223 36007.677364785174 36301.347724558275 203 16384 3325952 339247104 7.5406579754598e+14
vector 879  BasicTopology.peer[6].bitTorrentApp.bitTorrentClient.contentManager_26  PiecesDownloaded:vector  ETV
attr source ContentManager_PieceDownloaded
attr title "Pieces Downloaded, vector"
879	140316 826 2668632 81953223 36007.782485360532 36301.347724558275 24 0 23 276 4324
vector 888  BasicTopology.peer[7].bitTorrentApp.bitTorrentClient.contentManager_26  TotalBytesDownloaded:vector  ETV
attr source ContentManager_TotalBytesDownloaded
attr title "Total of Bytes Downloaded, vector"
attr unit B
888	161430 7727 2681805 82032196 36007.799972169252 36303.562165001792 196 16384 3211264 316309504 6.7889635367322e+14
vector 881  BasicTopology.peer[6].bitTorrentApp.bitTorrentClient.contentManager_26  TotalBytesUploaded:vector  ETV
attr source ContentManager_TotalBytesUploaded
attr title "Total of Bytes Uploaded, vector"
attr unit B
881	149157 11450 2691605 75361359 36007.817445274833 36129.453224818063 290 16384 4751360 691322880 2.1935914640998e+15
vector 1024  BasicTopology.peer[24].bitTorrentApp.bitTorrentClient.contentManager_26  TotalBytesDownloaded:vector  ETV
attr source ContentManager_TotalBytesDownloaded
attr title "Total of Bytes Downloaded, vector"
attr unit B
1024	404017 7763 2754723 75143413 36007.952552428508 36129.009970433882 192 16384 3145728 303562752 6.3827508985856e+14
vector 991  BasicTopology.peer[20].bitTorrentApp.bitTorrentClient.contentManager_26  PiecesDownloaded:vector  ETV
attr source ContentManager_PieceDownloaded
attr title "Pieces Downloaded, vector"
991	336933 828 2772449 72998218 36007.979867962285 36124.421566143207 24 0 23 276 4324
vector 993  BasicTopology.peer[20].bitTorrentApp.bitTorrentClient.contentManager_26  TotalBytesUploaded:vector  ETV
attr source ContentManager_TotalBytesUploaded
attr title "Total of Bytes Uploaded, vector"
attr unit B
993	345343 6070 2809300 70968829 36008.044091047794 36120.197135058883 154 16384 2523136 195543040 3.2998904823808e+14
vector 847  BasicTopology.peer[2].bitTorrentApp.bitTorrentClient.contentManager_26  PiecesDownloaded:vector  ETV
attr source ContentManager_PieceDownloaded
attr title "Pieces Downloaded, vector"
847	60745 821 2898372 64355299 36008.186923731626 36106.896493871996 24 0 23 276 4324
vector 849  BasicTopology.peer[2].bitTorrentApp.bitTorrentClient.contentManager_26  TotalBytesUploaded:vector  ETV
attr source ContentManager_TotalBytesUploaded
attr title "Total of Bytes Uploaded, vector"
attr unit B
849	69431 16289 2914679 73765896 36008.221109912397 36126.18108757764 413 16384 6766592 1400684544 6.3262234918257e+15
vector 944  BasicTopology.peer[14].bitTorrentApp.bitTorrentClient.contentManager_26  TotalBytesDownloaded:vector  ETV
attr source ContentManager_TotalBytesDownloaded
attr title "Total of Bytes Downloaded, vector"
attr unit B
944	265529 7552 2932927 78251827 36008.265858739155 36136.135803368119 192 16384 3145728 303562752 6.3827508985856e+14
vector 872  BasicTopology.peer[5].bitTorrentApp.bitTorrentClient.contentManager_26  TotalBytesDownloaded:vector  ETV
attr source ContentManager_TotalBytesDownloaded
attr title "Total of Bytes Downloaded, vector"
attr unit B
872	120885 8212 2955302 71760814 36008.306025908891 36121.954874904981 208 16384 3407872 356122624 8.1102511695462e+14
vector 896  BasicTopology.peer[8].bitTorrentApp.bitTorrentClient.contentManager_26  TotalBytesDownloaded:vector  ETV
attr source ContentManager_TotalBytesDownloaded
attr title "Total of Bytes Downloaded, vector"
attr unit B
896	172146 7601 2979191 77043759 36008.340293190135 36133.57949421042 193 16384 3162112 306724864 6.482740421591e+14
vector 1016  BasicTopology.peer[23].bitTorrentApp.bitTorrentClient.contentManager_26  TotalBytesDownloaded:vector  ETV
attr source ContentManager_TotalBytesDownloaded
attr title "Total of Bytes Downloaded, vector"
attr unit B
1016	388262 8099 3061597 69671791 36008.453194208704 36117.618698764928 200 16384 3276800 329318400 7.212055396352e+14
vector 968  BasicTopology.peer[17].bitTorrentApp.bitTorrentClient.contentManager_26  TotalBytesDownloaded:vector  ETV
attr source ContentManager_TotalBytesDownloaded
attr title "Total of Bytes Downloaded, vector"
attr unit B
968	302360 7898 3082593 76940401 36008.483218888634 36133.397472932265 200 16384 3276800 329318400 7.212055396352e+14
vector 855  BasicTopology.peer[3].bitTorrentApp.bitTorrentClient.contentManager_26  PiecesDownloaded:vector  ETV
attr source ContentManager_PieceDownloaded
attr title "Pieces Downloaded, vector"
855	85720 825 3228289 54595217 36008.676928148982 36088.143316538617 24 0 23 276 4324
vector 857  BasicTopology.peer[3].bitTorrentApp.bitTorrentClient.contentManager_26  TotalBytesUploaded:vector  ETV
attr source ContentManager_TotalBytesUploaded
attr title "Total of Bytes Uploaded, vector"
attr unit B
857	94593 9121 3261548 60651998 36008.724576656618 36099.665332103205 231 16384 3784704 439025664 1.1101191232553e+15
vector 999  BasicTopology.peer[21].bitTorrentApp.bitTorrentClient.contentManager_26  PiecesDownloaded:vector  ETV
attr source ContentManager_PieceDownloaded
attr title "Pieces Downloaded, vector"
999	351413 823 3323073 45751009 36008.832849447104 36073.872838999648 24 0 23 276 4324
vector 1001  BasicTopology.peer[21].bitTorrentApp.bitTorrentClient.contentManager_26  TotalBytesUploaded:vector  ETV
attr source ContentManager_TotalBytesUploaded
attr title "Total of Bytes Uploaded, vector"
attr unit B
1001	359988 8865 3342355 78047563 36008.872649719778 36135.707724401523 219 16384 3588096 394690560 9.4628061642752e+14
vector 1023  BasicTopology.peer[24].bitTorrentApp.bitTorrentClient.contentManager_26  PiecesDownloaded:vector  ETV
attr source ContentManager_PieceDownloaded
attr title "Pieces Downloaded, vector"
1023	403171 846 3503484 75143413 36009.220394455989 36129.009970433882 24 0 23 276 4324
vector 960  BasicTopology.peer[16].bitTorrentApp.bitTorrentClient.contentManager_26  TotalBytesDownloaded:vector  ETV
attr source ContentManager_TotalBytesDownloaded
attr title "Total of Bytes Downloaded, vector"
attr unit B
960	289715 7901 3551624 81153091 36009.358585300622 36146.013501654337 200 16384 3276800 329318400 7.212055396352e+14
vector 895  BasicTopology.peer[8].bitTorrentApp.bitTorrentClient.contentManager_26  PiecesDownloaded:vector  ETV
attr source ContentManager_PieceDownloaded
attr title "Pieces Downloaded, vector"
895	171320 826 3658999 77043759 36009.527607319957 36133.57949421042 24 0 23 276 4324
vector 943  BasicTopology.peer[14].bitTorrentApp.bitTorrentClient.contentManager_26  PiecesDownloaded:vector  ETV
attr source ContentManager_PieceDownloaded
attr title "Pieces Downloaded, vector"
943	264707 822 3724806 78251827 36009.689633564358 36136.135803368119 24 0 23 276 4324
vector 871  BasicTopology.peer[5].bitTorrentApp.bitTorrentClient.contentManager_26  PiecesDownloaded:vector  ETV
attr source ContentManager_PieceDownloaded
attr title "Pieces Downloaded, vector"
871	120060 825 3751501 71760814 36009.747759566962 36121.954874904981 24 0 23 276 4324
vector 887  BasicTopology.peer[7].bitTorrentApp.bitTorrentClient.contentManager_26  PiecesDownloaded:vector  ETV
attr source ContentManager_PieceDownloaded
attr title "Pieces Downloaded, vector"
887	160607 823 3969802 82032196 36010.090358948056 36303.562165001792 24 0 23 276 4324
vector 912  BasicTopology.peer[10].bitTorrentApp.bitTorrentClient.contentManager_26  TotalBytesDownloaded:vector  ETV
attr source ContentManager_TotalBytesDownloaded
attr title "Total of Bytes Downloaded, vector"
attr unit B
912	199590 7580 3980944 76045888 36010.1024569323 36131.088862477858 192 16384 3145728 303562752 6.3827508985856e+14
vector 1008  BasicTopology.peer[22].bitTorrentApp.bitTorrentClient.contentManager_26  TotalBytesDownloaded:vector  ETV
attr source ContentManager_TotalBytesDownloaded
attr title "Total of Bytes Downloaded, vector"
attr unit B
1008	369701 7910 4050478 71833325 36010.217438415792 36122.096264070455 196 16384 3211264 316309504 6.7889635367322e+14
vector 976  BasicTopology.peer[18].bitTorrentApp.bitTorrentClient.contentManager_26  TotalBytesDownloaded:vector  ETV
attr source ContentManager_TotalBytesDownloaded
attr title "Total of Bytes Downloaded, vector"
attr unit B
976	313979 8142 4319401 76663833 36010.657440427051 36132.691769649155 206 16384 3375104 349323264 7.879093345321e+14
vector 928  BasicTopology.peer[12].bitTorrentApp.bitTorrentClient.contentManager_26  TotalBytesDownloaded:vector  ETV
attr source ContentManager_TotalBytesDownloaded
attr title "Total of Bytes Downloaded, vector"
attr unit B
928	238402 8515 4667601 81286253 36011.229395051978 36146.353538436642 215 16384 3522560 380436480 8.9548457508864e+14
vector 863  BasicTopology.peer[4].bitTorrentApp.bitTorrentClient.contentManager_26  PiecesDownloaded:vector  ETV
attr source ContentManager_PieceDownloaded
attr title "Pieces Downloaded, vector"
863	103714 827 4922634 76142860 36011.68252731719 36131.564067606456 24 0 23 276 4324
vector 967  BasicTopology.peer[17].bitTorrentApp.bitTorrentClient.contentManager_26  PiecesDownloaded:vector  ETV
attr source ContentManager_PieceDownloaded
attr title "Pieces Downloaded, vector"
967	301533 827 4963541 76940401 36011.732341006819 36133.397472932265 24 0 23 276 4324
vector 969  BasicTopology.peer[17].bitTorrentApp.bitTorrentClient.contentManager_26  TotalBytesUploaded:vector  ETV
attr source ContentManager_TotalBytesUploaded
attr title "Total of Bytes Uploaded, vector"
attr unit B
969	310258 2894 5520886 81847698 36012.551323284235 36301.088134176128 75 16384 1228800 46694400 38507066163200
vector 911  BasicTopology.peer[10].bitTorrentApp.bitTorrentClient.contentManager_26  PiecesDownloaded:vector  ETV
attr source ContentManager_PieceDownloaded
attr title "Pieces Downloaded, vector"
911	198763 827 6628066 76045888 36014.338696973217 36131.088862477858 24 0 23 276 4324
vector 873  BasicTopology.peer[5].bitTorrentApp.bitTorrentClient.contentManager_26  TotalBytesUploaded:vector  ETV
attr source ContentManager_TotalBytesUploaded
attr title "Total of Bytes Uploaded, vector"
attr unit B
873	129097 11219 6990217 63501409 36014.874503686046 36105.054832427313 283 16384 4636672 658407424 2.0388086273802e+15
vector 903  BasicTopology.peer[9].bitTorrentApp.bitTorrentClient.contentManager_26  PiecesDownloaded:vector  ETV
attr source ContentManager_PieceDownloaded
attr title "Pieces Downloaded, vector"
903	184390 825 6995174 70755389 36014.882260862774 36119.777904740596 24 0 23 276 4324
vector 905  BasicTopology.peer[9].bitTorrentApp.bitTorrentClient.contentManager_26  TotalBytesUploaded:vector  ETV
attr source ContentManager_TotalBytesUploaded
attr title "Total of Bytes Uploaded, vector"
attr unit B
905	192794 5969 7022724 70820407 36014.925572143523 36119.897346558027 152 16384 2490368 190513152 3.1733902737408e+14
vector 1007  BasicTopology.peer[22].bitTorrentApp.bitTorrentClient.contentManager_26  PiecesDownloaded:vector  ETV
attr source ContentManager_PieceDownloaded
attr title "Pieces Downloaded, vector"
1007	368853 848 7153800 71833325 36015.110604704882 36122.096264070455 24 0 23 276 4324
vector 1009  BasicTopology.peer[22].bitTorrentApp.bitTorrentClient.contentManager_26  TotalBytesUploaded:vector  ETV
attr source ContentManager_TotalBytesUploaded
attr title "Total of Bytes Uploaded, vector"
attr unit B
1009	377611 9801 7195500 65467165 36015.184173847391 36109.129997014541 242 16384 3964928 481738752 1.2760039135642e+15
vector 945  BasicTopology.peer[14].bitTorrentApp.bitTorrentClient.contentManager_26  TotalBytesUploaded:vector  ETV
attr source ContentManager_TotalBytesUploaded
attr title "Total of Bytes Uploaded, vector"
attr unit B
945	273081 1853 7318819 56853388 36015.434140283429 36092.352271521521 48 16384 786432 19267584 10206989778944
vector 975  BasicTopology.peer[18].bitTorrentApp.bitTorrentClient.contentManager_26  PiecesDownloaded:vector  ETV
attr source ContentManager_PieceDownloaded
attr title "Pieces Downloaded, vector"
975	313152 827 7763516 76663833 36016.242415011174 36132.691769649155 24 0 23 276 4324
vector 959  BasicTopology.peer[16].bitTorrentApp.bitTorrentClient.contentManager_26  PiecesDownloaded:vector  ETV
attr source ContentManager_PieceDownloaded
attr title "Pieces Downloaded, vector"
959	288890 825 8485389 81153091 36017.343353886967 36146.013501654337 24 0 23 276 4324
vector 889  BasicTopology.peer[7].bitTorrentApp.bitTorrentClient.contentManager_26  TotalBytesUploaded:vector  ETV
attr source ContentManager_TotalBytesUploaded
attr title "Total of Bytes Uploaded, vector"
attr unit B
889	169157 2163 9430798 67631555 36018.713414818332 36113.568238788416 56 16384 917504 26148864 16137265872896
vector 1015  BasicTopology.peer[23].bitTorrentApp.bitTorrentClient.contentManager_26  PiecesDownloaded:vector  ETV
attr source ContentManager_PieceDownloaded
attr title "Pieces Downloaded, vector"
1015	387412 850 12407569 69671791 36023.470106709067 36117.618698764928 24 0 23 276 4324
vector 1025  BasicTopology.peer[24].bitTorrentApp.bitTorrentClient.contentManager_26  TotalBytesUploaded:vector  ETV
attr source ContentManager_TotalBytesUploaded
attr title "Total of Bytes Uploaded, vector"
attr unit B
1025	411780 7663 12453431 73449132 36023.541007581631 36125.509070804083 189 16384 3096576 294174720 6.0889617137664e+14
vector 913  BasicTopology.peer[10].bitTorrentApp.bitTorrentClient.contentManager_26  TotalBytesUploaded:vector  ETV
attr source ContentManager_TotalBytesUploaded
attr title "Total of Bytes Uploaded, vector"
attr unit B
913	207170 4082 12735250 79439845 36023.987168286123 36139.777725371911 104 16384 1703936 89456640 1.0210747875328e+14
vector 1017  BasicTopology.peer[23].bitTorrentApp.bitTorrentClient.contentManager_26  TotalBytesUploaded:vector  ETV
attr source ContentManager_TotalBytesUploaded
attr title "Total of Bytes Uploaded, vector"
attr unit B
1017	396361 6810 13097812 68735147 36024.612235225297 36115.751708015202 168 16384 2752512 232587264 4.280697267159e+14
vector 865  BasicTopology.peer[4].bitTorrentApp.bitTorrentClient.contentManager_26  TotalBytesUploaded:vector  ETV
attr source ContentManager_TotalBytesUploaded
attr title "Total of Bytes Uploaded, vector"
attr unit B
865	112114 7946 13754310 52491096 36025.7240399779 36084.547979557544 201 16384 3293184 332611584 7.3205060049306e+14
vector 927  BasicTopology.peer[12].bitTorrentApp.bitTorrentClient.contentManager_26  PiecesDownloaded:vector  ETV
attr source ContentManager_PieceDownloaded
attr title "Pieces Downloaded, vector"
927	237574 828 13941308 81286253 36026.028159181648 36146.353538436642 24 0 23 276 4324