file 419762 1593887686                                          
version 2
run Test-16-20200526-14:54:56-7152
attr configname Test
attr datetime 20200526-14:54:56
attr experiment "\"Simulation Test\""
attr inifile BasicConfig.ini
attr iterationvars ""
attr iterationvars2 $repetition=16
attr measurement "\"Peers: $peers, Rate: $rate\""
attr network BasicTopology
attr processid 7152
attr repetition 16
attr replication #16
attr resultdir results
attr runnumber 16
attr seedset 16
vector 3  BasicTopology.peer[1].bitTorrentApp.bitTorrentClient  DownloadComplete_Test:vector  ETV
attr source BitTorrentClient_DownloadComplete_Test
attr title "Descargas completas (prueba), vector"
3	21033 64 103 48808760 36001 36081.202218324566 2 36001 36081.202218325 72082.202218325 2597925154.5197
vector 5  BasicTopology.peer[2].bitTorrentApp.bitTorrentClient  DownloadComplete_Test:vector  ETV
attr source BitTorrentClient_DownloadComplete_Test
attr title "Descargas completas (prueba), vector"
5	21097 63 104 60634650 36001 36102.183282769861 2 36001 36102.18328277 72103.18328277 2599439638.7827
vector 7  BasicTopology.peer[3].bitTorrentApp.bitTorrentClient  DownloadComplete_Test:vector  ETV
attr source BitTorrentClient_DownloadComplete_Test
attr title "Descargas completas (prueba), vector"
7	21160 64 105 61199931 36001 36103.409004382838 2 36001 36103.409004383 72104.409004383 2599528142.7378
vector 9  BasicTopology.peer[4].bitTorrentApp.bitTorrentClient  DownloadComplete_Test:vector  ETV
attr source BitTorrentClient_DownloadComplete_Test
attr title "Descargas completas (prueba), vector"
9	21224 64 106 63583657 36001 36108.254057077947 2 36001 36108.254057078 72109.254057078 2599878012.0505
vector 11  BasicTopology.peer[5].bitTorrentApp.bitTorrentClient  DownloadComplete_Test:vector  ETV
attr source BitTorrentClient_DownloadComplete_Test
attr title "Descargas completas (prueba), vector"
11	21288 66 107 79423122 36001 36303.104655742778 2 36001 36303.104655743 72304.104655743 2613987408.6458
vector 13  BasicTopology.peer[6].bitTorrentApp.bitTorrentClient  DownloadComplete_Test:vector  ETV
attr source BitTorrentClient_DownloadComplete_Test
attr title "Descargas completas (prueba), vector"
13	21354 66 108 77603420 36001 36159.073045636311 2 36001 36159.073045636 72160.073045636 2603550564.5196
vector 15  BasicTopology.peer[7].bitTorrentApp.bitTorrentClient  DownloadComplete_Test:vector  ETV
attr source BitTorrentClient_DownloadComplete_Test
attr title "Descargas completas (prueba), vector"
15	21420 66 109 79225696 36001 36302.362825367843 2 36001 36302.362825368 72303.362825368 2613933547.7047
vector 17  BasicTopology.peer[8].bitTorrentApp.bitTorrentClient  DownloadComplete_Test:vector  ETV
attr source BitTorrentClient_DownloadComplete_Test
attr title "Descargas completas (prueba), vector"
17	21486 66 110 75157067 36001 36134.671194383753 2 36001 36134.671194384 72135.671194384 2601786463.3262
vector 19  BasicTopology.peer[9].bitTorrentApp.bitTorrentClient  DownloadComplete_Test:vector  ETV
attr source BitTorrentClient_DownloadComplete_Test
attr title "Descargas completas (prueba), vector"
19	21552 66 111 72858190 36001 36127.863203796722 2 36001 36127.863203797 72128.863203797 2601294500.6723
vector 21  BasicTopology.peer[10].bitTorrentApp.bitTorrentClient  DownloadComplete_Test:vector  ETV
attr source BitTorrentClient_DownloadComplete_Test
attr title "Descargas completas (prueba), vector"
21	21618 65 112 38182726 36001 36064.81913196526 2 36001 36064.819131965 72065.819131965 2596743180.0213
vector 23  BasicTopology.peer[11].bitTorrentApp.bitTorrentClient  DownloadComplete_Test:vector  ETV
attr source BitTorrentClient_DownloadComplete_Test
attr title "Descargas completas (prueba), vector"
23	21683 66 113 78790438 36001 36165.165865336443 2 36001 36165.165865336 72166.165865336 2603991223.0673
vector 25  BasicTopology.peer[12].bitTorrentApp.bitTorrentClient  DownloadComplete_Test:vector  ETV
attr source BitTorrentClient_DownloadComplete_Test
attr title "Descargas completas (prueba), vector"
25	21749 65 114 70490868 36001 36123.018609320365 2 36001 36123.01860932 72124.01860932 2600944474.4493
vector 27  BasicTopology.peer[13].bitTorrentApp.bitTorrentClient  DownloadComplete_Test:vector  ETV
attr source BitTorrentClient_DownloadComplete_Test
attr title "Descargas completas (prueba), vector"
27	21814 65 115 66911233 36001 36115.226137839646 2 36001 36115.22613784 72116.22613784 2600381559.9873
vector 29  BasicTopology.peer[14].bitTorrentApp.bitTorrentClient  DownloadComplete_Test:vector  ETV
attr source BitTorrentClient_DownloadComplete_Test
attr title "Descargas completas (prueba), vector"
29	21879 66 116 74187601 36001 36131.136142621792 2 36001 36131.136142622 72132.136142622 2601530999.9567
vector 31  BasicTopology.peer[15].bitTorrentApp.bitTorrentClient  DownloadComplete_Test:vector  ETV
attr source BitTorrentClient_DownloadComplete_Test
attr title "Descargas completas (prueba), vector"
31	21945 66 117 65281579 36001 36111.760333543868 2 36001 36111.760333544 72112.760333544 2600131235.3873
vector 33  BasicTopology.peer[16].bitTorrentApp.bitTorrentClient  DownloadComplete_Test:vector  ETV
attr source BitTorrentClient_DownloadComplete_Test
attr title "Descargas completas (prueba), vector"
33	22011 65 118 73555510 36001 36129.76967578486 2 36001 36129.769675785 72130.769675785 2601432257.8253
vector 35  BasicTopology.peer[17].bitTorrentApp.bitTorrentClient  DownloadComplete_Test:vector  ETV
attr source BitTorrentClient_DownloadComplete_Test
attr title "Descargas completas (prueba), vector"
35	22076 66 119 69984672 36001 36121.226060768357 2 36001 36121.226060768 72122.226060768 2600814973.1331
vector 37  BasicTopology.peer[18].bitTorrentApp.bitTorrentClient  DownloadComplete_Test:vector  ETV
attr source BitTorrentClient_DownloadComplete_Test
attr title "Descargas completas (prueba), vector"
37	22142 66 120 74291360 36001 36131.877073711288 2 36001 36131.877073711 72132.877073711 2601584541.8698
vector 39  BasicTopology.peer[19].bitTorrentApp.bitTorrentClient  DownloadComplete_Test:vector  ETV
attr source BitTorrentClient_DownloadComplete_Test
attr title "Descargas completas (prueba), vector"
39	22208 66 121 77211662 36001 36155.566113788878 2 36001 36155.566113789 72156.566113789 2603296962.0086
vector 41  BasicTopology.peer[20].bitTorrentApp.bitTorrentClient  DownloadComplete_Test:vector  ETV
attr source BitTorrentClient_DownloadComplete_Test
attr title "Descargas completas (prueba), vector"
41	22274 66 122 76324059 36001 36136.978612941034 2 36001 36136.978612941 72137.978612941 2601953224.2722
vector 43  BasicTopology.peer[21].bitTorrentApp.bitTorrentClient  DownloadComplete_Test:vector  ETV
attr source BitTorrentClient_DownloadComplete_Test
attr title "Descargas completas (prueba), vector"
43	22340 66 123 36371844 36001 36061.869455868629 2 36001 36061.869455869 72062.869455869 2596530429.6521
vector 45  BasicTopology.peer[22].bitTorrentApp.bitTorrentClient  DownloadComplete_Test:vector  ETV
attr source BitTorrentClient_DownloadComplete_Test
attr title "Descargas completas (prueba), vector"
45	22406 66 124 39808308 36001 36067.218951252881 2 36001 36067.218951253 72068.218951253 2596916283.8776
vector 47  BasicTopology.peer[23].bitTorrentApp.bitTorrentClient  DownloadComplete_Test:vector  ETV
attr source BitTorrentClient_DownloadComplete_Test
attr title "Descargas completas (prueba), vector"
47	22472 66 125 51193216 36001 36085.042251596331 2 36001 36085.042251596 72086.042251596 2598202275.2995
vector 49  BasicTopology.peer[24].bitTorrentApp.bitTorrentClient  DownloadComplete_Test:vector  ETV
attr source BitTorrentClient_DownloadComplete_Test
attr title "Descargas completas (prueba), vector"
49	22538 66 126 55512060 36001 36092.346957964621 2 36001 36092.346957965 72093.346957965 2598729509.9341
vector 833  BasicTopology.peer[0].bitTorrentApp.bitTorrentClient.contentManager_26  TotalBytesUploaded:vector  ETV
attr source ContentManager_TotalBytesUploaded
attr title "Total of Bytes Uploaded, vector"
attr unit B
833	22604 17095 119162 79199360 36001.125895603811 36301.118390920658 436 16384 7143424 1560838144 7.4416766960271e+15
vector 1000  BasicTopology.peer[21].bitTorrentApp.bitTorrentClient.contentManager_26  TotalBytesDownloaded:vector  ETV
attr source ContentManager_TotalBytesDownloaded
attr title "Total of Bytes Downloaded, vector"
attr unit B
1000	339414 7677 354344 36371844 36002.204736196628 36061.869455868629 192 16384 3145728 303562752 6.3827508985856e+14
vector 1024  BasicTopology.peer[24].bitTorrentApp.bitTorrentClient.contentManager_26  TotalBytesDownloaded:vector  ETV
attr source ContentManager_TotalBytesDownloaded
attr title "Total of Bytes Downloaded, vector"
attr unit B
1024	405588 8151 526005 55512060 36002.672650820901 36092.346957964621 202 16384 3309568 335921152 7.4300384083968e+14
vector 999  BasicTopology.peer[21].bitTorrentApp.bitTorrentClient.contentManager_26  PiecesDownloaded:vector  ETV
attr source ContentManager_PieceDownloaded
attr title "Pieces Downloaded, vector"
999	338599 815 745269 36371844 36003.415184290948 36061.869455868629 24 0 23 276 4324
vector 1001  BasicTopology.peer[21].bitTorrentApp.bitTorrentClient.contentManager_26  TotalBytesUploaded:vector  ETV
attr source ContentManager_TotalBytesUploaded
attr title "Total of Bytes Uploaded, vector"
attr unit B
1001	347091 19721 765043 72162086 36003.458159478996 36126.133586276434 488 16384 7995392 1954873344 1.0430662012043e+16
vector 912  BasicTopology.peer[10].bitTorrentApp.bitTorrentClient.contentManager_26  TotalBytesDownloaded:vector  ETV
attr source ContentManager_TotalBytesDownloaded
attr title "Total of Bytes Downloaded, vector"
attr unit B
912	176643 7519 810919 38182726 36003.580601473894 36064.81913196526 192 16384 3145728 303562752 6.3827508985856e+14
vector 928  BasicTopology.peer[12].bitTorrentApp.bitTorrentClient.contentManager_26  TotalBytesDownloaded:vector  ETV
attr source ContentManager_TotalBytesDownloaded
attr title "Total of Bytes Downloaded, vector"
attr unit B
928	209949 7762 983551 70490868 36004.283957529241 36123.018609320365 197 16384 3227648 319537152 6.8931406528512e+14
vector 968  BasicTopology.peer[17].bitTorrentApp.bitTorrentClient.contentManager_26  TotalBytesDownloaded:vector  ETV
attr source ContentManager_TotalBytesDownloaded
attr title "Total of Bytes Downloaded, vector"
attr unit B
968	285644 7975 1302041 69984672 36005.170696802798 36121.226060768357 202 16384 3309568 335921152 7.4300384083968e+14
vector 944  BasicTopology.peer[14].bitTorrentApp.bitTorrentClient.contentManager_26  TotalBytesDownloaded:vector  ETV
attr source ContentManager_TotalBytesDownloaded
attr title "Total of Bytes Downloaded, vector"
attr unit B
944	237393 7563 1396333 74187601 36005.385907084973 36131.136142621792 192 16384 3145728 303562752 6.3827508985856e+14
vector 911  BasicTopology.peer[10].bitTorrentApp.bitTorrentClient.contentManager_26  PiecesDownloaded:vector  ETV
attr source ContentManager_PieceDownloaded
attr title "Pieces Downloaded, vector"
911	175824 819 1615626 38182726 36006.057292701543 36064.81913196526 24 0 23 276 4324
vector 1023  BasicTopology.peer[24].bitTorrentApp.bitTorrentClient.contentManager_26  PiecesDownloaded:vector  ETV
attr source ContentManager_PieceDownloaded
attr title "Pieces Downloaded, vector"
1023	404743 845 1627922 55512060 36006.07909393823 36092.346957964621 24 0 23 276 4324
vector 1025  BasicTopology.peer[24].bitTorrentApp.bitTorrentClient.contentManager_26  TotalBytesUploaded:vector  ETV
attr source ContentManager_TotalBytesUploaded
attr title "Total of Bytes Uploaded, vector"
attr unit B
1025	413739 6023 1641545 63886721 36006.098064496805 36108.815386298608 150 16384 2457600 185548800 3.050164977664e+14
vector 913  BasicTopology.peer[10].bitTorrentApp.bitTorrentClient.contentManager_26  TotalBytesUploaded:vector  ETV
attr source ContentManager_TotalBytesUploaded
attr title "Total of Bytes Uploaded, vector"
attr unit B
913	184162 10272 1651477 71506478 36006.115012633931 36124.879632057138 261 16384 4276224 560185344 1.6000447005327e+15
vector 840  BasicTopology.peer[1].bitTorrentApp.bitTorrentClient.contentManager_26  TotalBytesDownloaded:vector  ETV
attr source ContentManager_TotalBytesDownloaded
attr title "Total of Bytes Downloaded, vector"
attr unit B
840	40524 7579 1712083 48808760 36006.216404876695 36081.202218324566 192 16384 3145728 303562752 6.3827508985856e+14
vector 839  BasicTopology.peer[1].bitTorrentApp.bitTorrentClient.contentManager_26  PiecesDownloaded:vector  ETV
attr source ContentManager_PieceDownloaded
attr title "Pieces Downloaded, vector"
839	39699 825 1827616 48808760 36006.534972040612 36081.202218324566 24 0 23 276 4324
vector 841  BasicTopology.peer[1].bitTorrentApp.bitTorrentClient.contentManager_26  TotalBytesUploaded:vector  ETV
attr source ContentManager_TotalBytesUploaded
attr title "Total of Bytes Uploaded, vector"
attr unit B
841	48103 11581 1841848 61441675 36006.618134105341 36103.897097772326 293 16384 4800512 705675264 2.2622556431319e+15
vector 936  BasicTopology.peer[13].bitTorrentApp.bitTorrentClient.contentManager_26  TotalBytesDownloaded:vector  ETV
attr source ContentManager_TotalBytesDownloaded
attr title "Total of Bytes Downloaded, vector"
attr unit B
936	226190 7572 1875854 66911233 36006.696189137734 36115.226137839646 192 16384 3145728 303562752 6.3827508985856e+14
vector 943  BasicTopology.peer[14].bitTorrentApp.bitTorrentClient.contentManager_26  PiecesDownloaded:vector  ETV
attr source ContentManager_PieceDownloaded
attr title "Pieces Downloaded, vector"
943	236567 826 1894612 74187601 36006.734537540885 36131.136142621792 24 0 23 276 4324
vector 896  BasicTopology.peer[8].bitTorrentApp.bitTorrentClient.contentManager_26  TotalBytesDownloaded:vector  ETV
attr source ContentManager_TotalBytesDownloaded
attr title "Total of Bytes Downloaded, vector"
attr unit B
896	154656 7571 1926174 75157067 36006.784140766174 36134.671194383753 192 16384 3145728 303562752 6.3827508985856e+14
vector 945  BasicTopology.peer[14].bitTorrentApp.bitTorrentClient.contentManager_26  TotalBytesUploaded:vector  ETV
attr source ContentManager_TotalBytesUploaded
attr title "Total of Bytes Uploaded, vector"
attr unit B
945	244956 8009 1943098 41046276 36006.811930974284 36069.126660546319 204 16384 3342336 342589440 7.6523700748288e+14
vector 952  BasicTopology.peer[15].bitTorrentApp.bitTorrentClient.contentManager_26  TotalBytesDownloaded:vector  ETV
attr source ContentManager_TotalBytesDownloaded
attr title "Total of Bytes Downloaded, vector"
attr unit B
952	253791 7577 2227820 65281579 36007.495530341191 36111.760333543868 192 16384 3145728 303562752 6.3827508985856e+14
vector 927  BasicTopology.peer[12].bitTorrentApp.bitTorrentClient.contentManager_26  PiecesDownloaded:vector  ETV
attr source ContentManager_PieceDownloaded
attr title "Pieces Downloaded, vector"
927	209122 827 2231396 70490868 36007.501063468847 36123.018609320365 24 0 23 276 4324
vector 929  BasicTopology.peer[12].bitTorrentApp.bitTorrentClient.contentManager_26  TotalBytesUploaded:vector  ETV
attr source ContentManager_TotalBytesUploaded
attr title "Total of Bytes Uploaded, vector"
attr unit B
929	217711 7654 2257824 52114720 36007.542417680397 36086.675615956236 195 16384 3194880 313098240 6.6858413719552e+14
vector 888  BasicTopology.peer[7].bitTorrentApp.bitTorrentClient.contentManager_26  TotalBytesDownloaded:vector  ETV
attr source ContentManager_TotalBytesDownloaded
attr title "Total of Bytes Downloaded, vector"
attr unit B
888	139260 7694 2306706 79225696 36007.610332004139 36302.362825367843 195 16384 3194880 313098240 6.6858413719552e+14
vector 951  BasicTopology.peer[15].bitTorrentApp.bitTorrentClient.contentManager_26  PiecesDownloaded:vector  ETV
attr source ContentManager_PieceDownloaded
attr title "Pieces Downloaded, vector"
951	252965 826 2350529 65281579 36007.67156185999 36111.760333543868 24 0 23 276 4324
vector 953  BasicTopology.peer[15].bitTorrentApp.bitTorrentClient.contentManager_26  TotalBytesUploaded:vector  ETV
attr source ContentManager_TotalBytesUploaded
attr title "Total of Bytes Uploaded, vector"
attr unit B
953	261368 8819 2378601 56919178 36007.718098932608 36094.844196557533 224 16384 3670016 412876800 1.0124311658496e+15
vector 920  BasicTopology.peer[11].bitTorrentApp.bitTorrentClient.contentManager_26  TotalBytesDownloaded:vector  ETV
attr source ContentManager_TotalBytesDownloaded
attr title "Total of Bytes Downloaded, vector"
attr unit B
920	195259 7891 2391729 78790438 36007.740921063423 36165.165865336443 200 16384 3276800 329318400 7.212055396352e+14
vector 872  BasicTopology.peer[5].bitTorrentApp.bitTorrentClient.contentManager_26  TotalBytesDownloaded:vector  ETV
attr source ContentManager_TotalBytesDownloaded
attr title "Total of Bytes Downloaded, vector"
attr unit B
872	108026 7818 2414812 79423122 36007.776558163764 36303.104655742778 198 16384 3244032 322781184 6.9983780890214e+14
vector 919  BasicTopology.peer[11].bitTorrentApp.bitTorrentClient.contentManager_26  PiecesDownloaded:vector  ETV
attr source ContentManager_PieceDownloaded
attr title "Pieces Downloaded, vector"
919	194434 825 2537144 78790438 36007.965654012874 36165.165865336443 24 0 23 276 4324
vector 921  BasicTopology.peer[11].bitTorrentApp.bitTorrentClient.contentManager_26  TotalBytesUploaded:vector  ETV
attr source ContentManager_TotalBytesUploaded
attr title "Total of Bytes Uploaded, vector"
attr unit B
921	203150 5972 2550370 70108903 36007.986716997025 36121.58399138334 152 16384 2490368 190513152 3.1733902737408e+14
vector 904  BasicTopology.peer[9].bitTorrentApp.bitTorrentClient.contentManager_26  TotalBytesDownloaded:vector  ETV
attr source ContentManager_TotalBytesDownloaded
attr title "Total of Bytes Downloaded, vector"
attr unit B
904	164592 7572 2615111 72858190 36008.121676569366 36127.863203796722 192 16384 3145728 303562752 6.3827508985856e+14
vector 960  BasicTopology.peer[16].bitTorrentApp.bitTorrentClient.contentManager_26  TotalBytesDownloaded:vector  ETV
attr source ContentManager_TotalBytesDownloaded
attr title "Total of Bytes Downloaded, vector"
attr unit B
960	271010 7566 2648824 73555510 36008.179517327992 36129.76967578486 192 16384 3145728 303562752 6.3827508985856e+14
vector 864  BasicTopology.peer[4].bitTorrentApp.bitTorrentClient.contentManager_26  TotalBytesDownloaded:vector  ETV
attr source ContentManager_TotalBytesDownloaded
attr title "Total of Bytes Downloaded, vector"
attr unit B
864	91829 7570 2655979 63583657 36008.19205643611 36108.254057077947 192 16384 3145728 303562752 6.3827508985856e+14
vector 848  BasicTopology.peer[2].bitTorrentApp.bitTorrentClient.contentManager_26  TotalBytesDownloaded:vector  ETV
attr source ContentManager_TotalBytesDownloaded
attr title "Total of Bytes Downloaded, vector"
attr unit B
848	60508 8285 2897250 60634650 36008.524342997676 36102.183282769861 210 16384 3440640 362987520 8.3458864971776e+14
vector 903  BasicTopology.peer[9].bitTorrentApp.bitTorrentClient.contentManager_26  PiecesDownloaded:vector  ETV
attr source ContentManager_PieceDownloaded
attr title "Pieces Downloaded, vector"
903	163767 825 2985512 72858190 36008.635472570333 36127.863203796722 24 0 23 276 4324
vector 905  BasicTopology.peer[9].bitTorrentApp.bitTorrentClient.contentManager_26  TotalBytesUploaded:vector  ETV
attr source ContentManager_TotalBytesUploaded
attr title "Total of Bytes Uploaded, vector"
attr unit B
905	172164 3660 3010701 49319213 36008.666106760034 36081.980338736199 94 16384 1540096 73154560 75509551595520
vector 880  BasicTopology.peer[6].bitTorrentApp.bitTorrentClient.contentManager_26  TotalBytesDownloaded:vector  ETV
attr source ContentManager_TotalBytesDownloaded
attr title "Total of Bytes Downloaded, vector"
attr unit B
880	127940 7574 3078425 77603420 36008.758785316359 36159.073045636311 192 16384 3145728 303562752 6.3827508985856e+14
vector 959  BasicTopology.peer[16].bitTorrentApp.bitTorrentClient.contentManager_26  PiecesDownloaded:vector  ETV
attr source ContentManager_PieceDownloaded
attr title "Pieces Downloaded, vector"
959	270187 823 3554681 73555510 36009.590801215996 36129.76967578486 24 0 23 276 4324
vector 961  BasicTopology.peer[16].bitTorrentApp.bitTorrentClient.contentManager_26  TotalBytesUploaded:vector  ETV
attr source ContentManager_TotalBytesUploaded
attr title "Total of Bytes Uploaded, vector"
attr unit B
961	278576 6242 3596410 79184564 36009.651658862387 36301.08365522384 159 16384 2605056 208404480 3.6307506036736e+14
vector 847  BasicTopology.peer[2].bitTorrentApp.bitTorrentClient.contentManager_26  PiecesDownloaded:vector  ETV
attr source ContentManager_PieceDownloaded
attr title "Pieces Downloaded, vector"
847	59684 824 3791191 60634650 36009.958456657881 36102.183282769861 24 0 23 276 4324
vector 1008  BasicTopology.peer[22].bitTorrentApp.bitTorrentClient.contentManager_26  TotalBytesDownloaded:vector  ETV
attr source ContentManager_TotalBytesDownloaded
attr title "Total of Bytes Downloaded, vector"
attr unit B
1008	367660 7733 3933550 39808308 36010.109643161757 36067.218951252881 192 16384 3145728 303562752 6.3827508985856e+14
vector 856  BasicTopology.peer[3].bitTorrentApp.bitTorrentClient.contentManager_26  TotalBytesDownloaded:vector  ETV
attr source ContentManager_TotalBytesDownloaded
attr title "Total of Bytes Downloaded, vector"
attr unit B
856	76519 7578 4037765 61199931 36010.293843446309 36103.409004382838 192 16384 3145728 303562752 6.3827508985856e+14
vector 1007  BasicTopology.peer[22].bitTorrentApp.bitTorrentClient.contentManager_26  PiecesDownloaded:vector  ETV
attr source ContentManager_PieceDownloaded
attr title "Pieces Downloaded, vector"
1007	366812 848 4087762 39808308 36010.364722239855 36067.218951252881 24 0 23 276 4324
vector 879  BasicTopology.peer[6].bitTorrentApp.bitTorrentClient.contentManager_26  PiecesDownloaded:vector  ETV
attr source ContentManager_PieceDownloaded
attr title "Pieces Downloaded, vector"
879	127114 826 4179425 77603420 36010.485986355737 36159.073045636311 24 0 23 276 4324
vector 871  BasicTopology.peer[5].bitTorrentApp.bitTorrentClient.contentManager_26  PiecesDownloaded:vector  ETV
attr source ContentManager_PieceDownloaded
attr title "Pieces Downloaded, vector"
871	107202 824 4572526 79423122 36011.083584101782 36303.104655742778 24 0 23 276 4324
vector 873  BasicTopology.peer[5].bitTorrentApp.bitTorrentClient.contentManager_26  TotalBytesUploaded:vector  ETV
attr source ContentManager_TotalBytesUploaded
attr title "Total of Bytes Uploaded, vector"
attr unit B
873	115844 11270 4866544 67270094 36011.58019025528 36115.977821497139 285 16384 4669440 667729920 2.082263227433e+15
vector 895  BasicTopology.peer[8].bitTorrentApp.bitTorrentClient.contentManager_26  PiecesDownloaded:vector  ETV
attr source ContentManager_PieceDownloaded
attr title "Pieces Downloaded, vector"
895	153830 826 5044140 75157067 36011.859598930314 36134.671194383753 24 0 23 276 4324
vector 855  BasicTopology.peer[3].bitTorrentApp.bitTorrentClient.contentManager_26  PiecesDownloaded:vector  ETV
attr source ContentManager_PieceDownloaded
attr title "Pieces Downloaded, vector"
855	75692 827 5049788 61199931 36011.866013080613 36103.409004382838 24 0 23 276 4324
vector 857  BasicTopology.peer[3].bitTorrentApp.bitTorrentClient.contentManager_26  TotalBytesUploaded:vector  ETV
attr source ContentManager_TotalBytesUploaded
attr title "Total of Bytes Uploaded, vector"
attr unit B
857	84097 6909 5078374 60302031 36011.908488799812 36101.52582898394 176 16384 2883584 255197184 4.9198206130586e+14
vector 1016  BasicTopology.peer[23].bitTorrentApp.bitTorrentClient.contentManager_26  TotalBytesDownloaded:vector  ETV
attr source ContentManager_TotalBytesDownloaded
attr title "Total of Bytes Downloaded, vector"
attr unit B
1016	387930 7766 5118965 51193216 36011.974839078009 36085.042251596331 192 16384 3145728 303562752 6.3827508985856e+14
vector 1015  BasicTopology.peer[23].bitTorrentApp.bitTorrentClient.contentManager_26  PiecesDownloaded:vector  ETV
attr source ContentManager_PieceDownloaded
attr title "Pieces Downloaded, vector"
1015	387082 848 5282225 51193216 36012.293998723639 36085.042251596331 24 0 23 276 4324
vector 1017  BasicTopology.peer[23].bitTorrentApp.bitTorrentClient.contentManager_26  TotalBytesUploaded:vector  ETV
attr source ContentManager_TotalBytesUploaded
attr title "Total of Bytes Uploaded, vector"
attr unit B
1017	395696 9047 5294325 74275962 36012.313514166976 36131.838044455309 224 16384 3670016 412876800 1.0124311658496e+15
vector 976  BasicTopology.peer[18].bitTorrentApp.bitTorrentClient.contentManager_26  TotalBytesDownloaded:vector  ETV
attr source ContentManager_TotalBytesDownloaded
attr title "Total of Bytes Downloaded, vector"
attr unit B
976	296615 7971 5350602 74291360 36012.414099881939 36131.877073711288 202 16384 3309568 335921152 7.4300384083968e+14
vector 849  BasicTopology.peer[2].bitTorrentApp.bitTorrentClient.contentManager_26  TotalBytesUploaded:vector  ETV
attr source ContentManager_TotalBytesUploaded
attr title "Total of Bytes Uploaded, vector"
attr unit B
849	68793 6899 5451394 56137751 36012.613802355318 36093.403779687195 175 16384 2867200 252313600 4.836670046208e+14
vector 984  BasicTopology.peer[19].bitTorrentApp.bitTorrentClient.contentManager_26  TotalBytesDownloaded:vector  ETV
attr source ContentManager_TotalBytesDownloaded
attr title "Total of Bytes Downloaded, vector"
attr unit B
984	306340 9732 6145900 77211662 36013.623288932551 36155.566113788878 246 16384 4030464 497762304 1.3401938104156e+15
vector 863  BasicTopology.peer[4].bitTorrentApp.bitTorrentClient.contentManager_26  PiecesDownloaded:vector  ETV
attr source ContentManager_PieceDownloaded
attr title "Pieces Downloaded, vector"
863	91006 823 6452464 63583657 36014.081443651147 36108.254057077947 24 0 23 276 4324
vector 967  BasicTopology.peer[17].bitTorrentApp.bitTorrentClient.contentManager_26  PiecesDownloaded:vector  ETV
attr source ContentManager_PieceDownloaded
attr title "Pieces Downloaded, vector"
967	284818 826 6458309 69984672 36014.086919347166 36121.226060768357 24 0 23 276 4324
vector 881  BasicTopology.peer[6].bitTorrentApp.bitTorrentClient.contentManager_26  TotalBytesUploaded:vector  ETV
attr source ContentManager_TotalBytesUploaded
attr title "Total of Bytes Uploaded, vector"
attr unit B
881	135514 2922 6661149 47802020 36014.380425343139 36079.581594549753 75 16384 1228800 46694400 38507066163200
vector 897  BasicTopology.peer[8].bitTorrentApp.bitTorrentClient.contentManager_26  TotalBytesUploaded:vector  ETV
attr source ContentManager_TotalBytesUploaded
attr title "Total of Bytes Uploaded, vector"
attr unit B
897	162227 1540 6712672 47383432 36014.519566040471 36078.856536023803 40 16384 655360 13434880 5943160995840
vector 975  BasicTopology.peer[18].bitTorrentApp.bitTorrentClient.contentManager_26  PiecesDownloaded:vector  ETV
attr source ContentManager_PieceDownloaded
attr title "Pieces Downloaded, vector"
975	295792 823 6857356 74291360 36014.778174272108 36131.877073711288 24 0 23 276 4324
vector 887  BasicTopology.peer[7].bitTorrentApp.bitTorrentClient.contentManager_26  PiecesDownloaded:vector  ETV
attr source ContentManager_PieceDownloaded
attr title "Pieces Downloaded, vector"
887	138436 824 7739036 79225696 36016.474047768517 36302.362825367843 24 0 23 276 4324
vector 865  BasicTopology.peer[4].bitTorrentApp.bitTorrentClient.contentManager_26  TotalBytesUploaded:vector  ETV
attr source ContentManager_TotalBytesUploaded
attr title "Total of Bytes Uploaded, vector"
attr unit B
865	99399 7803 8859695 58312342 36018.17518815368 36097.477172449989 198 16384 3244032 322781184 6.9983780890214e+14
vector 935  BasicTopology.peer[13].bitTorrentApp.bitTorrentClient.contentManager_26  PiecesDownloaded:vector  ETV
attr source ContentManager_PieceDownloaded
attr title "Pieces Downloaded, vector"
935	225365 825 9034486 66911233 36018.48588418055 36115.226137839646 24 0 23 276 4324
vector 983  BasicTopology.peer[19].bitTorrentApp.bitTorrentClient.contentManager_26  PiecesDownloaded:vector  ETV
attr source ContentManager_PieceDownloaded
attr title "Pieces Downloaded, vector"
983	305515 825 9139290 77211662 36018.635241722741 36155.566113788878 24 0 23 276 4324
vector 992  BasicTopology.peer[20].bitTorrentApp.bitTorrentClient.contentManager_26  TotalBytesDownloaded:vector  ETV
attr source ContentManager_TotalBytesDownloaded
attr title "Total of Bytes Downloaded, vector"
attr unit B
992	317517 8226 9241956 76324059 36018.851288651816 36136.978612941034 208 16384 3407872 356122624 8.1102511695462e+14
vector 1009  BasicTopology.peer[22].bitTorrentApp.bitTorrentClient.contentManager_26  TotalBytesUploaded:vector  ETV
attr source ContentManager_TotalBytesUploaded
attr title "Total of Bytes Uploaded, vector"
attr unit B
1009	375393 11689 9650829 76895857 36019.536328976643 36154.91538859618 288 16384 4718592 681836544 2.1485960445297e+15
vector 889  BasicTopology.peer[7].bitTorrentApp.bitTorrentClient.contentManager_26  TotalBytesUploaded:vector  ETV
attr source ContentManager_TotalBytesUploaded
attr title "Total of Bytes Uploaded, vector"
attr unit B
889	146954 6876 10887079 78493771 36021.945844181837 36164.533572420213 174 16384 2850816 249446400 4.754461687808e+14
vector 937  BasicTopology.peer[13].bitTorrentApp.bitTorrentClient.contentManager_26  TotalBytesUploaded:vector  ETV
attr source ContentManager_TotalBytesUploaded
attr title "Total of Bytes Uploaded, vector"
attr unit B
937	233762 2805 11065771 65943454 36022.225813561268 36113.148831730782 72 16384 1179648 43057152 34096671621120
vector 969  BasicTopology.peer[17].bitTorrentApp.bitTorrentClient.contentManager_26  TotalBytesUploaded:vector  ETV
attr source ContentManager_TotalBytesUploaded
attr title "Total of Bytes Uploaded, vector"
attr unit B
969	293619 2173 12912061 23218575 36025.066340438943 36041.340169361866 56 16384 917504 26148864 16137265872896