file 422056 1593887686                                          
version 2
run Test-13-20200526-14:54:28-7121
attr configname Test
attr datetime 20200526-14:54:28
attr experiment "\"Simulation Test\""
attr inifile BasicConfig.ini
attr iterationvars ""
attr iterationvars2 $repetition=13
attr measurement "\"Peers: $peers, Rate: $rate\""
attr network BasicTopology
attr processid 7121
attr repetition 13
attr replication #13
attr resultdir results
attr runnumber 13
attr seedset 13
vector 3  BasicTopology.peer[1].bitTorrentApp.bitTorrentClient  DownloadComplete_Test:vector  ETV
attr source BitTorrentClient_DownloadComplete_Test
attr title "Descargas completas (prueba), vector"
3	21033 64 103 49524274 36001 36082.645307746111 2 36001 36082.645307746 72083.645307746 2598029293.4046
vector 5  BasicTopology.peer[2].bitTorrentApp.bitTorrentClient  DownloadComplete_Test:vector  ETV
attr source BitTorrentClient_DownloadComplete_Test
attr title "Descargas completas (prueba), vector"
5	21097 64 104 59688328 36001 36102.425280485054 2 36001 36102.425280485 72103.425280485 2599457112.133
vector 7  BasicTopology.peer[3].bitTorrentApp.bitTorrentClient  DownloadComplete_Test:vector  ETV
attr source BitTorrentClient_DownloadComplete_Test
attr title "Descargas completas (prueba), vector"
7	21161 64 105 65569557 36001 36115.092206168957 2 36001 36115.092206169 72116.092206169 2600371886.0601
vector 9  BasicTopology.peer[4].bitTorrentApp.bitTorrentClient  DownloadComplete_Test:vector  ETV
attr source BitTorrentClient_DownloadComplete_Test
attr title "Descargas completas (prueba), vector"
9	21225 64 106 76674814 36001 36152.359830925863 2 36001 36152.359830926 72153.359830926 2603065122.3448
vector 11  BasicTopology.peer[5].bitTorrentApp.bitTorrentClient  DownloadComplete_Test:vector  ETV
attr source BitTorrentClient_DownloadComplete_Test
attr title "Descargas completas (prueba), vector"
11	21289 66 107 64515440 36001 36112.799130428519 2 36001 36112.799130429 72113.799130429 2600206262.0347
vector 13  BasicTopology.peer[6].bitTorrentApp.bitTorrentClient  DownloadComplete_Test:vector  ETV
attr source BitTorrentClient_DownloadComplete_Test
attr title "Descargas completas (prueba), vector"
13	21355 65 108 69456511 36001 36123.86856604181 2 36001 36123.868566042 72124.868566042 2601005881.1767
vector 15  BasicTopology.peer[7].bitTorrentApp.bitTorrentClient  DownloadComplete_Test:vector  ETV
attr source BitTorrentClient_DownloadComplete_Test
attr title "Descargas completas (prueba), vector"
15	21420 66 109 71413391 36001 36128.598824243013 2 36001 36128.598824243 72129.598824243 2601347654.0031
vector 17  BasicTopology.peer[8].bitTorrentApp.bitTorrentClient  DownloadComplete_Test:vector  ETV
attr source BitTorrentClient_DownloadComplete_Test
attr title "Descargas completas (prueba), vector"
17	21486 66 110 74696133 36001 36138.046098425235 2 36001 36138.046098425 72139.046098425 2602030376.8119
vector 19  BasicTopology.peer[9].bitTorrentApp.bitTorrentClient  DownloadComplete_Test:vector  ETV
attr source BitTorrentClient_DownloadComplete_Test
attr title "Descargas completas (prueba), vector"
19	21552 66 111 75524122 36001 36141.566922423714 2 36001 36141.566922424 72142.566922424 2602284860.6081
vector 21  BasicTopology.peer[10].bitTorrentApp.bitTorrentClient  DownloadComplete_Test:vector  ETV
attr source BitTorrentClient_DownloadComplete_Test
attr title "Descargas completas (prueba), vector"
21	21618 66 112 19741355 36001 36036.784851644574 2 36001 36036.784851645 72037.784851645 2594721863.4438
vector 23  BasicTopology.peer[11].bitTorrentApp.bitTorrentClient  DownloadComplete_Test:vector  ETV
attr source BitTorrentClient_DownloadComplete_Test
attr title "Descargas completas (prueba), vector"
23	21684 66 113 77497112 36001 36301.558041066923 2 36001 36301.558041067 72302.558041067 2613875117.209
vector 25  BasicTopology.peer[12].bitTorrentApp.bitTorrentClient  DownloadComplete_Test:vector  ETV
attr source BitTorrentClient_DownloadComplete_Test
attr title "Descargas completas (prueba), vector"
25	21750 66 114 74917701 36001 36138.514192334948 2 36001 36138.514192335 72139.514192335 2602064209.0296
vector 27  BasicTopology.peer[13].bitTorrentApp.bitTorrentClient  DownloadComplete_Test:vector  ETV
attr source BitTorrentClient_DownloadComplete_Test
attr title "Descargas completas (prueba), vector"
27	21816 66 115 66902777 36001 36117.884667986041 2 36001 36117.884667986 72118.884667986 2600573593.8899
vector 29  BasicTopology.peer[14].bitTorrentApp.bitTorrentClient  DownloadComplete_Test:vector  ETV
attr source BitTorrentClient_DownloadComplete_Test
attr title "Descargas completas (prueba), vector"
29	21882 66 116 77649032 36001 36302.886130025069 2 36001 36302.886130025 72303.886130025 2613971542.3696
vector 31  BasicTopology.peer[15].bitTorrentApp.bitTorrentClient  DownloadComplete_Test:vector  ETV
attr source BitTorrentClient_DownloadComplete_Test
attr title "Descargas completas (prueba), vector"
31	21948 66 117 77775548 36001 36392.485210858744 2 36001 36392.485210859 72393.485210859 2620484980.8226
vector 33  BasicTopology.peer[16].bitTorrentApp.bitTorrentClient  DownloadComplete_Test:vector  ETV
attr source BitTorrentClient_DownloadComplete_Test
attr title "Descargas completas (prueba), vector"
33	22014 66 118 75865892 36001 36145.715228206819 2 36001 36145.715228207 72146.715228207 2602584730.3586
vector 35  BasicTopology.peer[17].bitTorrentApp.bitTorrentClient  DownloadComplete_Test:vector  ETV
attr source BitTorrentClient_DownloadComplete_Test
attr title "Descargas completas (prueba), vector"
35	22080 66 119 69351667 36001 36123.409399760525 2 36001 36123.409399761 72124.409399761 2600972707.6627
vector 37  BasicTopology.peer[18].bitTorrentApp.bitTorrentClient  DownloadComplete_Test:vector  ETV
attr source BitTorrentClient_DownloadComplete_Test
attr title "Descargas completas (prueba), vector"
37	22146 66 120 66936893 36001 36117.944451355553 2 36001 36117.944451356 72118.944451356 2600577912.3912
vector 39  BasicTopology.peer[19].bitTorrentApp.bitTorrentClient  DownloadComplete_Test:vector  ETV
attr source BitTorrentClient_DownloadComplete_Test
attr title "Descargas completas (prueba), vector"
39	22212 66 121 73873705 36001 36134.642405951793 2 36001 36134.642405952 72135.642405952 2601784382.806
vector 41  BasicTopology.peer[20].bitTorrentApp.bitTorrentClient  DownloadComplete_Test:vector  ETV
attr source BitTorrentClient_DownloadComplete_Test
attr title "Descargas completas (prueba), vector"
41	22278 66 122 64778916 36001 36113.450021301795 2 36001 36113.450021302 72114.450021302 2600253273.4411
vector 43  BasicTopology.peer[21].bitTorrentApp.bitTorrentClient  DownloadComplete_Test:vector  ETV
attr source BitTorrentClient_DownloadComplete_Test
attr title "Descargas completas (prueba), vector"
43	22344 66 123 59869325 36001 36102.794840641501 2 36001 36102.794840642 72103.794840642 2599483796.3055
vector 45  BasicTopology.peer[22].bitTorrentApp.bitTorrentClient  DownloadComplete_Test:vector  ETV
attr source BitTorrentClient_DownloadComplete_Test
attr title "Descargas completas (prueba), vector"
45	22410 66 124 71031479 36001 36127.463952743006 2 36001 36127.463952743 72128.463952743 2601265652.6567
vector 47  BasicTopology.peer[23].bitTorrentApp.bitTorrentClient  DownloadComplete_Test:vector  ETV
attr source BitTorrentClient_DownloadComplete_Test
attr title "Descargas completas (prueba), vector"
47	22476 66 125 53220445 36001 36089.358700786048 2 36001 36089.358700786 72090.358700786 2598513812.434
vector 49  BasicTopology.peer[24].bitTorrentApp.bitTorrentClient  DownloadComplete_Test:vector  ETV
attr source BitTorrentClient_DownloadComplete_Test
attr title "Descargas completas (prueba), vector"
49	22542 66 126 62331324 36001 36107.981018325521 2 36001 36107.981018326 72108.981018326 2599858294.2198
vector 833  BasicTopology.peer[0].bitTorrentApp.bitTorrentClient.contentManager_26  TotalBytesUploaded:vector  ETV
attr source ContentManager_TotalBytesUploaded
attr title "Total of Bytes Uploaded, vector"
attr unit B
833	22608 17709 268900 71338932 36001.566127722076 36128.458538056923 455 16384 7454720 1699676160 8.4563557403853e+15
vector 912  BasicTopology.peer[10].bitTorrentApp.bitTorrentClient.contentManager_26  TotalBytesDownloaded:vector  ETV
attr source ContentManager_TotalBytesDownloaded
attr title "Total of Bytes Downloaded, vector"
attr unit B
912	197149 7443 280932 19741355 36001.578379037869 36036.784851644574 192 16384 3145728 303562752 6.3827508985856e+14
vector 840  BasicTopology.peer[1].bitTorrentApp.bitTorrentClient.contentManager_26  TotalBytesDownloaded:vector  ETV
attr source ContentManager_TotalBytesDownloaded
attr title "Total of Bytes Downloaded, vector"
attr unit B
840	41129 7468 355812 49524274 36001.763574282106 36082.645307746111 192 16384 3145728 303562752 6.3827508985856e+14
vector 911  BasicTopology.peer[10].bitTorrentApp.bitTorrentClient.contentManager_26  PiecesDownloaded:vector  ETV
attr source ContentManager_PieceDownloaded
attr title "Pieces Downloaded, vector"
911	196338 811 554700 19741355 36002.71155159791 36036.784851644574 24 0 23 276 4324
vector 944  BasicTopology.peer[14].bitTorrentApp.bitTorrentClient.contentManager_26  TotalBytesDownloaded:vector  ETV
attr source ContentManager_TotalBytesDownloaded
attr title "Total of Bytes Downloaded, vector"
attr unit B
944	253899 7573 577295 77649032 36003.191642437964 36302.886130025069 192 16384 3145728 303562752 6.3827508985856e+14
vector 943  BasicTopology.peer[14].bitTorrentApp.bitTorrentClient.contentManager_26  PiecesDownloaded:vector  ETV
attr source ContentManager_PieceDownloaded
attr title "Pieces Downloaded, vector"
943	253073 826 737602 77649032 36003.594426610209 36302.886130025069 24 0 23 276 4324
vector 945  BasicTopology.peer[14].bitTorrentApp.bitTorrentClient.contentManager_26  TotalBytesUploaded:vector  ETV
attr source ContentManager_TotalBytesUploaded
attr title "Total of Bytes Uploaded, vector"
attr unit B
945	261472 11410 756192 77750195 36003.64052589844 36391.042376381789 290 16384 4751360 691322880 2.1935914640998e+15
vector 913  BasicTopology.peer[10].bitTorrentApp.bitTorrentClient.contentManager_26  TotalBytesUploaded:vector  ETV
attr source ContentManager_TotalBytesUploaded
attr title "Total of Bytes Uploaded, vector"
attr unit B
913	204592 13755 875448 67092752 36004.057958646973 36118.383898035709 350 16384 5734400 1006387200 3.8528473890816e+15
vector 839  BasicTopology.peer[1].bitTorrentApp.bitTorrentClient.contentManager_26  PiecesDownloaded:vector  ETV
attr source ContentManager_PieceDownloaded
attr title "Pieces Downloaded, vector"
839	40317 812 1267978 49524274 36004.880078479748 36082.645307746111 24 0 23 276 4324
vector 841  BasicTopology.peer[1].bitTorrentApp.bitTorrentClient.contentManager_26  TotalBytesUploaded:vector  ETV
attr source ContentManager_TotalBytesUploaded
attr title "Total of Bytes Uploaded, vector"
attr unit B
841	48597 14100 1289594 73694757 36004.925746714969 36134.300188086749 358 16384 5865472 1052852224 4.1227334702858e+15
vector 936  BasicTopology.peer[13].bitTorrentApp.bitTorrentClient.contentManager_26  TotalBytesDownloaded:vector  ETV
attr source ContentManager_TotalBytesDownloaded
attr title "Total of Bytes Downloaded, vector"
attr unit B
936	242092 7584 1307690 66902777 36004.969824865044 36117.884667986041 192 16384 3145728 303562752 6.3827508985856e+14
vector 992  BasicTopology.peer[20].bitTorrentApp.bitTorrentClient.contentManager_26  TotalBytesDownloaded:vector  ETV
attr source ContentManager_TotalBytesDownloaded
attr title "Total of Bytes Downloaded, vector"
attr unit B
992	340921 7888 1308858 64778916 36004.971697582291 36113.450021301795 202 16384 3309568 335921152 7.4300384083968e+14
vector 928  BasicTopology.peer[12].bitTorrentApp.bitTorrentClient.contentManager_26  TotalBytesDownloaded:vector  ETV
attr source ContentManager_TotalBytesDownloaded
attr title "Total of Bytes Downloaded, vector"
attr unit B
928	230280 8179 1348690 75435674 36005.028985562536 36141.021306371609 207 16384 3391488 352714752 7.9941152538624e+14
vector 968  BasicTopology.peer[17].bitTorrentApp.bitTorrentClient.contentManager_26  TotalBytesDownloaded:vector  ETV
attr source ContentManager_TotalBytesDownloaded
attr title "Total of Bytes Downloaded, vector"
attr unit B
968	303338 7812 1375266 69351667 36005.074426171184 36123.409399760525 198 16384 3244032 322781184 6.9983780890214e+14
vector 872  BasicTopology.peer[5].bitTorrentApp.bitTorrentClient.contentManager_26  TotalBytesDownloaded:vector  ETV
attr source ContentManager_TotalBytesDownloaded
attr title "Total of Bytes Downloaded, vector"
attr unit B
872	121017 8344 1634543 67005956 36005.70912558669 36118.200978796684 212 16384 3473408 369917952 8.586042277888e+14
vector 1024  BasicTopology.peer[24].bitTorrentApp.bitTorrentClient.contentManager_26  TotalBytesDownloaded:vector  ETV
attr source ContentManager_TotalBytesDownloaded
attr title "Total of Bytes Downloaded, vector"
attr unit B
1024	408025 7760 1649750 62331324 36005.742627187527 36107.981018325521 192 16384 3145728 303562752 6.3827508985856e+14
vector 935  BasicTopology.peer[13].bitTorrentApp.bitTorrentClient.contentManager_26  PiecesDownloaded:vector  ETV
attr source ContentManager_PieceDownloaded
attr title "Pieces Downloaded, vector"
935	241264 828 1812224 66902777 36006.186647234477 36117.884667986041 24 0 23 276 4324
vector 937  BasicTopology.peer[13].bitTorrentApp.bitTorrentClient.contentManager_26  TotalBytesUploaded:vector  ETV
attr source ContentManager_TotalBytesUploaded
attr title "Total of Bytes Uploaded, vector"
attr unit B
937	249676 3397 1820213 59440072 36006.198098690532 36101.868541094096 88 16384 1441792 64159744 62020401496064
vector 864  BasicTopology.peer[4].bitTorrentApp.bitTorrentClient.contentManager_26  TotalBytesDownloaded:vector  ETV
attr source ContentManager_TotalBytesDownloaded
attr title "Total of Bytes Downloaded, vector"
attr unit B
864	97061 8200 1848408 76778399 36006.265020638882 36152.64681216238 208 16384 3407872 356122624 8.1102511695462e+14
vector 848  BasicTopology.peer[2].bitTorrentApp.bitTorrentClient.contentManager_26  TotalBytesDownloaded:vector  ETV
attr source ContentManager_TotalBytesDownloaded
attr title "Total of Bytes Downloaded, vector"
attr unit B
848	63522 7539 1969419 59688328 36006.671624980309 36102.425280485054 192 16384 3145728 303562752 6.3827508985856e+14
vector 991  BasicTopology.peer[20].bitTorrentApp.bitTorrentClient.contentManager_26  PiecesDownloaded:vector  ETV
attr source ContentManager_PieceDownloaded
attr title "Pieces Downloaded, vector"
991	340103 818 2205712 64778916 36007.268412539355 36113.450021301795 24 0 23 276 4324
vector 993  BasicTopology.peer[20].bitTorrentApp.bitTorrentClient.contentManager_26  TotalBytesUploaded:vector  ETV
attr source ContentManager_TotalBytesUploaded
attr title "Total of Bytes Uploaded, vector"
attr unit B
993	348809 10873 2218671 72230865 36007.304722291456 36130.851444685254 276 16384 4521984 626294784 1.8914837329347e+15
vector 863  BasicTopology.peer[4].bitTorrentApp.bitTorrentClient.contentManager_26  PiecesDownloaded:vector  ETV
attr source ContentManager_PieceDownloaded
attr title "Pieces Downloaded, vector"
863	96237 824 2321924 76674814 36007.526463046575 36152.359830925863 24 0 23 276 4324
vector 865  BasicTopology.peer[4].bitTorrentApp.bitTorrentClient.contentManager_26  TotalBytesUploaded:vector  ETV
attr source ContentManager_TotalBytesUploaded
attr title "Total of Bytes Uploaded, vector"
attr unit B
865	105261 14933 2356810 52596056 36007.571711118867 36088.059024608936 379 16384 6209536 1179811840 4.8904994081997e+15
vector 880  BasicTopology.peer[6].bitTorrentApp.bitTorrentClient.contentManager_26  TotalBytesDownloaded:vector  ETV
attr source ContentManager_TotalBytesDownloaded
attr title "Total of Bytes Downloaded, vector"
attr unit B
880	138741 7583 2428565 69456511 36007.687995697847 36123.86856604181 192 16384 3145728 303562752 6.3827508985856e+14
vector 847  BasicTopology.peer[2].bitTorrentApp.bitTorrentClient.contentManager_26  PiecesDownloaded:vector  ETV
attr source ContentManager_PieceDownloaded
attr title "Pieces Downloaded, vector"
847	62697 825 2702202 59688328 36008.239273895556 36102.425280485054 24 0 23 276 4324
vector 849  BasicTopology.peer[2].bitTorrentApp.bitTorrentClient.contentManager_26  TotalBytesUploaded:vector  ETV
attr source ContentManager_TotalBytesUploaded
attr title "Total of Bytes Uploaded, vector"
attr unit B
849	71061 9707 2736817 75788580 36008.322164084367 36144.574921120778 247 16384 4046848 501809152 1.3565707891507e+15
vector 967  BasicTopology.peer[17].bitTorrentApp.bitTorrentClient.contentManager_26  PiecesDownloaded:vector  ETV
attr source ContentManager_PieceDownloaded
attr title "Pieces Downloaded, vector"
967	302512 826 2882764 69351667 36008.556356029295 36123.409399760525 24 0 23 276 4324
vector 969  BasicTopology.peer[17].bitTorrentApp.bitTorrentClient.contentManager_26  TotalBytesUploaded:vector  ETV
attr source ContentManager_TotalBytesUploaded
attr title "Total of Bytes Uploaded, vector"
attr unit B
969	311150 4060 2903930 60424979 36008.590563009758 36103.965327376905 104 16384 1703936 89456640 1.0210747875328e+14
vector 960  BasicTopology.peer[16].bitTorrentApp.bitTorrentClient.contentManager_26  TotalBytesDownloaded:vector  ETV
attr source ContentManager_TotalBytesDownloaded
attr title "Total of Bytes Downloaded, vector"
attr unit B
960	286543 8574 2959393 75865892 36008.717272749883 36145.715228206819 217 16384 3555328 387530752 9.2064905691136e+14
vector 976  BasicTopology.peer[18].bitTorrentApp.bitTorrentClient.contentManager_26  TotalBytesDownloaded:vector  ETV
attr source ContentManager_TotalBytesDownloaded
attr title "Total of Bytes Downloaded, vector"
attr unit B
976	316038 7581 3123487 66936893 36009.067702491774 36117.944451355553 192 16384 3145728 303562752 6.3827508985856e+14
vector 879  BasicTopology.peer[6].bitTorrentApp.bitTorrentClient.contentManager_26  PiecesDownloaded:vector  ETV
attr source ContentManager_PieceDownloaded
attr title "Pieces Downloaded, vector"
879	137916 825 3143648 69456511 36009.097518083506 36123.86856604181 24 0 23 276 4324
vector 881  BasicTopology.peer[6].bitTorrentApp.bitTorrentClient.contentManager_26  TotalBytesUploaded:vector  ETV
attr source ContentManager_TotalBytesUploaded
attr title "Total of Bytes Uploaded, vector"
attr unit B
881	146324 4930 3184377 56137881 36009.154543720254 36095.247405605212 126 16384 2064384 131088384 1.8112709237146e+14
vector 856  BasicTopology.peer[3].bitTorrentApp.bitTorrentClient.contentManager_26  TotalBytesDownloaded:vector  ETV
attr source ContentManager_TotalBytesDownloaded
attr title "Total of Bytes Downloaded, vector"
attr unit B
856	81596 7972 3206598 75334708 36009.185115601232 36140.359326208654 202 16384 3309568 335921152 7.4300384083968e+14
vector 1000  BasicTopology.peer[21].bitTorrentApp.bitTorrentClient.contentManager_26  TotalBytesDownloaded:vector  ETV
attr source ContentManager_TotalBytesDownloaded
attr title "Total of Bytes Downloaded, vector"
attr unit B
1000	360506 8046 3386505 59869325 36009.465758267101 36102.794840641501 199 16384 3260416 326041600 7.104681213952e+14
vector 975  BasicTopology.peer[18].bitTorrentApp.bitTorrentClient.contentManager_26  PiecesDownloaded:vector  ETV
attr source ContentManager_PieceDownloaded
attr title "Pieces Downloaded, vector"
975	315210 828 3436351 66936893 36009.543364451424 36117.944451355553 24 0 23 276 4324
vector 952  BasicTopology.peer[15].bitTorrentApp.bitTorrentClient.contentManager_26  TotalBytesDownloaded:vector  ETV
attr source ContentManager_TotalBytesDownloaded
attr title "Total of Bytes Downloaded, vector"
attr unit B
952	273705 7572 3515376 77775548 36009.717976121999 36392.485210858744 192 16384 3145728 303562752 6.3827508985856e+14
vector 896  BasicTopology.peer[8].bitTorrentApp.bitTorrentClient.contentManager_26  TotalBytesDownloaded:vector  ETV
attr source ContentManager_TotalBytesDownloaded
attr title "Total of Bytes Downloaded, vector"
attr unit B
896	165142 7567 3586966 74696133 36009.834323008872 36138.046098425235 192 16384 3145728 303562752 6.3827508985856e+14
vector 959  BasicTopology.peer[16].bitTorrentApp.bitTorrentClient.contentManager_26  PiecesDownloaded:vector  ETV
attr source ContentManager_PieceDownloaded
attr title "Pieces Downloaded, vector"
959	285718 825 3687916 75865892 36009.979714475466 36145.715228206819 24 0 23 276 4324
vector 1016  BasicTopology.peer[23].bitTorrentApp.bitTorrentClient.contentManager_26  TotalBytesDownloaded:vector  ETV
attr source ContentManager_TotalBytesDownloaded
attr title "Total of Bytes Downloaded, vector"
attr unit B
1016	392243 7744 3891530 53220445 36010.220521604469 36089.358700786048 192 16384 3145728 303562752 6.3827508985856e+14
vector 984  BasicTopology.peer[19].bitTorrentApp.bitTorrentClient.contentManager_26  TotalBytesDownloaded:vector  ETV
attr source ContentManager_TotalBytesDownloaded
attr title "Total of Bytes Downloaded, vector"
attr unit B
984	327890 9731 3936781 74105058 36010.410686966983 36135.178517034166 246 16384 4030464 497762304 1.3401938104156e+15
vector 888  BasicTopology.peer[7].bitTorrentApp.bitTorrentClient.contentManager_26  TotalBytesDownloaded:vector  ETV
attr source ContentManager_TotalBytesDownloaded
attr title "Total of Bytes Downloaded, vector"
attr unit B
888	152081 7564 4109517 71413391 36010.709901388803 36128.598824243013 192 16384 3145728 303562752 6.3827508985856e+14
vector 895  BasicTopology.peer[8].bitTorrentApp.bitTorrentClient.contentManager_26  PiecesDownloaded:vector  ETV
attr source ContentManager_PieceDownloaded
attr title "Pieces Downloaded, vector"
895	164314 828 4293329 74696133 36011.002799410124 36138.046098425235 24 0 23 276 4324
vector 1008  BasicTopology.peer[22].bitTorrentApp.bitTorrentClient.contentManager_26  TotalBytesDownloaded:vector  ETV
attr source ContentManager_TotalBytesDownloaded
attr title "Total of Bytes Downloaded, vector"
attr unit B
1008	377922 8308 4435864 71476039 36011.293248617932 36128.743542986205 205 16384 3358720 345948160 7.7651800752128e+14
vector 1015  BasicTopology.peer[23].bitTorrentApp.bitTorrentClient.contentManager_26  PiecesDownloaded:vector  ETV
attr source ContentManager_PieceDownloaded
attr title "Pieces Downloaded, vector"
1015	391393 850 4596465 53220445 36011.584679531723 36089.358700786048 24 0 23 276 4324
vector 1007  BasicTopology.peer[22].bitTorrentApp.bitTorrentClient.contentManager_26  PiecesDownloaded:vector  ETV
attr source ContentManager_PieceDownloaded
attr title "Pieces Downloaded, vector"
1007	377073 849 4612182 71031479 36011.610898609082 36127.463952743006 24 0 23 276 4324
vector 983  BasicTopology.peer[19].bitTorrentApp.bitTorrentClient.contentManager_26  PiecesDownloaded:vector  ETV
attr source ContentManager_PieceDownloaded
attr title "Pieces Downloaded, vector"
983	327066 824 4676588 73873705 36011.736754864544 36134.642405951793 24 0 23 276 4324
vector 855  BasicTopology.peer[3].bitTorrentApp.bitTorrentClient.contentManager_26  PiecesDownloaded:vector  ETV
attr source ContentManager_PieceDownloaded
attr title "Pieces Downloaded, vector"
855	80768 828 4946449 65569557 36012.287160237075 36115.092206168957 24 0 23 276 4324
vector 1023  BasicTopology.peer[24].bitTorrentApp.bitTorrentClient.contentManager_26  PiecesDownloaded:vector  ETV
attr source ContentManager_PieceDownloaded
attr title "Pieces Downloaded, vector"
1023	407179 846 5173867 62331324 36012.735003455546 36107.981018325521 24 0 23 276 4324
vector 904  BasicTopology.peer[9].bitTorrentApp.bitTorrentClient.contentManager_26  TotalBytesDownloaded:vector  ETV
attr source ContentManager_TotalBytesDownloaded
attr title "Total of Bytes Downloaded, vector"
attr unit B
904	178759 7575 5208291 75524122 36012.77346073553 36141.566922423714 192 16384 3145728 303562752 6.3827508985856e+14
vector 999  BasicTopology.peer[21].bitTorrentApp.bitTorrentClient.contentManager_26  PiecesDownloaded:vector  ETV
attr source ContentManager_PieceDownloaded
attr title "Pieces Downloaded, vector"
999	359682 824 5267263 59869325 36012.858304771477 36102.794840641501 24 0 23 276 4324
vector 887  BasicTopology.peer[7].bitTorrentApp.bitTorrentClient.contentManager_26  PiecesDownloaded:vector  ETV
attr source ContentManager_PieceDownloaded
attr title "Pieces Downloaded, vector"
887	151254 827 5376979 71413391 36013.026134829238 36128.598824243013 24 0 23 276 4324
vector 871  BasicTopology.peer[5].bitTorrentApp.bitTorrentClient.contentManager_26  PiecesDownloaded:vector  ETV
attr source ContentManager_PieceDownloaded
attr title "Pieces Downloaded, vector"
871	120194 823 5497237 64515440 36013.200843192837 36112.799130428519 24 0 23 276 4324
vector 903  BasicTopology.peer[9].bitTorrentApp.bitTorrentClient.contentManager_26  PiecesDownloaded:vector  ETV
attr source ContentManager_PieceDownloaded
attr title "Pieces Downloaded, vector"
903	177934 825 5867449 75524122 36013.997109708162 36141.566922423714 24 0 23 276 4324
vector 951  BasicTopology.peer[15].bitTorrentApp.bitTorrentClient.contentManager_26  PiecesDownloaded:vector  ETV
attr source ContentManager_PieceDownloaded
attr title "Pieces Downloaded, vector"
951	272882 823 5906776 77775548 36014.062501116651 36392.485210858744 24 0 23 276 4324
vector 953  BasicTopology.peer[15].bitTorrentApp.bitTorrentClient.contentManager_26  TotalBytesUploaded:vector  ETV
attr source ContentManager_TotalBytesUploaded
attr title "Total of Bytes Uploaded, vector"
attr unit B
953	281277 4441 6492864 57754115 36015.094846711273 36098.436314885153 114 16384 1867776 107397120 1.3431570694144e+14
vector 897  BasicTopology.peer[8].bitTorrentApp.bitTorrentClient.contentManager_26  TotalBytesUploaded:vector  ETV
attr source ContentManager_TotalBytesUploaded
attr title "Total of Bytes Uploaded, vector"
attr unit B
897	172709 5225 7292220 69608610 36016.600723137803 36124.178865402545 133 16384 2179072 145997824 2.1289052300902e+14
vector 927  BasicTopology.peer[12].bitTorrentApp.bitTorrentClient.contentManager_26  PiecesDownloaded:vector  ETV
attr source ContentManager_PieceDownloaded
attr title "Pieces Downloaded, vector"
927	229458 822 7597461 74917701 36017.123362923395 36138.514192334948 24 0 23 276 4324
vector 1017  BasicTopology.peer[23].bitTorrentApp.bitTorrentClient.contentManager_26  TotalBytesUploaded:vector  ETV
attr source ContentManager_TotalBytesUploaded
attr title "Total of Bytes Uploaded, vector"
attr unit B
1017	399987 7192 8058311 61143715 36018.02969683988 36105.478797882776 178 16384 2916352 261013504 5.0889698469478e+14
vector 873  BasicTopology.peer[5].bitTorrentApp.bitTorrentClient.contentManager_26  TotalBytesUploaded:vector  ETV
attr source ContentManager_TotalBytesUploaded
attr title "Total of Bytes Uploaded, vector"
attr unit B
873	129361 8555 8156623 63847613 36018.178542916137 36111.247523196146 217 16384 3555328 387530752 9.2064905691136e+14
vector 905  BasicTopology.peer[9].bitTorrentApp.bitTorrentClient.contentManager_26  TotalBytesUploaded:vector  ETV
attr source ContentManager_TotalBytesUploaded
attr title "Total of Bytes Uploaded, vector"
attr unit B
905	186334 10004 8835533 61927506 36019.46159848386 36107.201932916716 253 16384 4145152 526434304 1.4576418386084e+15
vector 889  BasicTopology.peer[7].bitTorrentApp.bitTorrentClient.contentManager_26  TotalBytesUploaded:vector  ETV
attr source ContentManager_TotalBytesUploaded
attr title "Total of Bytes Uploaded, vector"
attr unit B
889	159645 4669 9198238 57135499 36019.992943026398 36097.238957873377 119 16384 1949696 116981760 1.5269145608192e+14
vector 1001  BasicTopology.peer[21].bitTorrentApp.bitTorrentClient.contentManager_26  TotalBytesUploaded:vector  ETV
attr source ContentManager_TotalBytesUploaded
attr title "Total of Bytes Uploaded, vector"
attr unit B
1001	368552 8521 10005797 76124989 36021.311338526933 36148.501182203851 210 16384 3440640 362987520 8.3458864971776e+14
vector 961  BasicTopology.peer[16].bitTorrentApp.bitTorrentClient.contentManager_26  TotalBytesUploaded:vector  ETV
attr source ContentManager_TotalBytesUploaded
attr title "Total of Bytes Uploaded, vector"
attr unit B
961	295117 7395 11295387 70537348 36023.276997097204 36126.190079946545 187 16384 3063808 287997952 5.89819805696e+14
vector 920  BasicTopology.peer[11].bitTorrentApp.bitTorrentClient.contentManager_26  TotalBytesDownloaded:vector  ETV
attr source ContentManager_TotalBytesDownloaded
attr title "Total of Bytes Downloaded, vector"
attr unit B
920	219177 7836 12536683 77497112 36025.301827326971 36301.558041066923 198 16384 3244032 322781184 6.9983780890214e+14
vector 1025  BasicTopology.peer[24].bitTorrentApp.bitTorrentClient.contentManager_26  TotalBytesUploaded:vector  ETV
attr source ContentManager_TotalBytesUploaded
attr title "Total of Bytes Uploaded, vector"
attr unit B
1025	415785 6271 12728202 54353249 36025.704477323701 36091.650305145451 155 16384 2539520 198082560 3.3643821006848e+14
vector 919  BasicTopology.peer[11].bitTorrentApp.bitTorrentClient.contentManager_26  PiecesDownloaded:vector  ETV
attr source ContentManager_PieceDownloaded
attr title "Pieces Downloaded, vector"
919	218347 830 13921124 77497112 36027.646565584136 36301.558041066923 24 0 23 276 4324
vector 921  BasicTopology.peer[11].bitTorrentApp.bitTorrentClient.contentManager_26  TotalBytesUploaded:vector  ETV
attr source ContentManager_TotalBytesUploaded
attr title "Total of Bytes Uploaded, vector"
attr unit B
921	227013 2445 13961946 77545331 36027.693561815947 36302.604353724247 63 16384 1032192 33030144 22909355556864
vector 1009  BasicTopology.peer[22].bitTorrentApp.bitTorrentClient.contentManager_26  TotalBytesUploaded:vector  ETV
attr source ContentManager_TotalBytesUploaded
attr title "Total of Bytes Uploaded, vector"
attr unit B
1009	386230 5163 14288587 59206805 36028.182140594984 36101.430246384132 128 16384 2097152 135266304 1.8985473435238e+14