file 420785 1593887686                                          
version 2
run Test-21-20200526-14:55:47-7201
attr configname Test
attr datetime 20200526-14:55:47
attr experiment "\"Simulation Test\""
attr inifile BasicConfig.ini
attr iterationvars ""
attr iterationvars2 $repetition=21
attr measurement "\"Peers: $peers, Rate: $rate\""
attr network BasicTopology
attr processid 7201
attr repetition 21
attr replication #21
attr resultdir results
attr runnumber 21
attr seedset 21
vector 3  BasicTopology.peer[1].bitTorrentApp.bitTorrentClient  DownloadComplete_Test:vector  ETV
attr source BitTorrentClient_DownloadComplete_Test
attr title "Descargas completas (prueba), vector"
3	21033 64 103 62328112 36001 36106.449410064588 2 36001 36106.449410065 72107.449410065 2599747690.0016
vector 5  BasicTopology.peer[2].bitTorrentApp.bitTorrentClient  DownloadComplete_Test:vector  ETV
attr source BitTorrentClient_DownloadComplete_Test
attr title "Descargas completas (prueba), vector"
5	21097 64 104 43032534 36001 36072.100487514608 2 36001 36072.100487515 72073.100487515 2597268434.5814
vector 7  BasicTopology.peer[3].bitTorrentApp.bitTorrentClient  DownloadComplete_Test:vector  ETV
attr source BitTorrentClient_DownloadComplete_Test
attr title "Descargas completas (prueba), vector"
7	21161 64 105 58144509 36001 36098.129353303492 2 36001 36098.129353303 72099.129353303 2599146943.8078
vector 9  BasicTopology.peer[4].bitTorrentApp.bitTorrentClient  DownloadComplete_Test:vector  ETV
attr source BitTorrentClient_DownloadComplete_Test
attr title "Descargas completas (prueba), vector"
9	21225 64 106 66899592 36001 36116.056716501039 2 36001 36116.056716501 72117.056716501 2600441553.7495
vector 11  BasicTopology.peer[5].bitTorrentApp.bitTorrentClient  DownloadComplete_Test:vector  ETV
attr source BitTorrentClient_DownloadComplete_Test
attr title "Descargas completas (prueba), vector"
11	21289 66 107 72974492 36001 36130.088936713286 2 36001 36130.088936713 72131.088936713 2601455327.5748
vector 13  BasicTopology.peer[6].bitTorrentApp.bitTorrentClient  DownloadComplete_Test:vector  ETV
attr source BitTorrentClient_DownloadComplete_Test
attr title "Descargas completas (prueba), vector"
13	21355 66 108 72722664 36001 36129.544355728947 2 36001 36129.544355729 72130.544355729 2601415976.3526
vector 15  BasicTopology.peer[7].bitTorrentApp.bitTorrentClient  DownloadComplete_Test:vector  ETV
attr source BitTorrentClient_DownloadComplete_Test
attr title "Descargas completas (prueba), vector"
15	21421 65 109 79213091 36001 36150.521201080415 2 36001 36150.52120108 72151.52120108 2602932184.1097
vector 17  BasicTopology.peer[8].bitTorrentApp.bitTorrentClient  DownloadComplete_Test:vector  ETV
attr source BitTorrentClient_DownloadComplete_Test
attr title "Descargas completas (prueba), vector"
17	21486 66 110 76015862 36001 36137.474966585963 2 36001 36137.474966586 72138.474966586 2601989097.9606
vector 19  BasicTopology.peer[9].bitTorrentApp.bitTorrentClient  DownloadComplete_Test:vector  ETV
attr source BitTorrentClient_DownloadComplete_Test
attr title "Descargas completas (prueba), vector"
19	21552 65 111 74988121 36001 36135.27568143714 2 36001 36135.275681437 72136.275681437 2601830149.5735
vector 21  BasicTopology.peer[10].bitTorrentApp.bitTorrentClient  DownloadComplete_Test:vector  ETV
attr source BitTorrentClient_DownloadComplete_Test
attr title "Descargas completas (prueba), vector"
21	21617 66 112 40969917 36001 36068.719125761899 2 36001 36068.719125762 72069.719125762 2597024500.3731
vector 23  BasicTopology.peer[11].bitTorrentApp.bitTorrentClient  DownloadComplete_Test:vector  ETV
attr source BitTorrentClient_DownloadComplete_Test
attr title "Descargas completas (prueba), vector"
23	21683 66 113 71813279 36001 36127.462290616318 2 36001 36127.462290616 72128.462290616 2601265532.5599
vector 25  BasicTopology.peer[12].bitTorrentApp.bitTorrentClient  DownloadComplete_Test:vector  ETV
attr source BitTorrentClient_DownloadComplete_Test
attr title "Descargas completas (prueba), vector"
25	21749 66 114 74677813 36001 36134.670524303941 2 36001 36134.670524304 72135.670524304 2601786414.9
vector 27  BasicTopology.peer[13].bitTorrentApp.bitTorrentClient  DownloadComplete_Test:vector  ETV
attr source BitTorrentClient_DownloadComplete_Test
attr title "Descargas completas (prueba), vector"
27	21815 64 115 71863618 36001 36127.6205433556 2 36001 36127.620543356 72128.620543356 2601276967.1247
vector 29  BasicTopology.peer[14].bitTorrentApp.bitTorrentClient  DownloadComplete_Test:vector  ETV
attr source BitTorrentClient_DownloadComplete_Test
attr title "Descargas completas (prueba), vector"
29	21879 66 116 73529913 36001 36131.332744651022 2 36001 36131.332744651 72132.332744651 2601545206.9047
vector 31  BasicTopology.peer[15].bitTorrentApp.bitTorrentClient  DownloadComplete_Test:vector  ETV
attr source BitTorrentClient_DownloadComplete_Test
attr title "Descargas completas (prueba), vector"
31	21945 66 117 70536688 36001 36124.559022297223 2 36001 36124.559022297 72125.559022297 2601055765.5554
vector 33  BasicTopology.peer[16].bitTorrentApp.bitTorrentClient  DownloadComplete_Test:vector  ETV
attr source BitTorrentClient_DownloadComplete_Test
attr title "Descargas completas (prueba), vector"
33	22011 66 118 79109615 36001 36150.215424906445 2 36001 36150.215424906 72151.215424906 2602910076.2671
vector 35  BasicTopology.peer[17].bitTorrentApp.bitTorrentClient  DownloadComplete_Test:vector  ETV
attr source BitTorrentClient_DownloadComplete_Test
attr title "Descargas completas (prueba), vector"
35	22077 65 119 79851367 36001 36153.346965360292 2 36001 36153.34696536 72154.34696536 2603136497.7977
vector 37  BasicTopology.peer[18].bitTorrentApp.bitTorrentClient  DownloadComplete_Test:vector  ETV
attr source BitTorrentClient_DownloadComplete_Test
attr title "Descargas completas (prueba), vector"
37	22142 66 120 78176720 36001 36145.583525527326 2 36001 36145.583525527 72146.583525527 2602575209.4008
vector 39  BasicTopology.peer[19].bitTorrentApp.bitTorrentClient  DownloadComplete_Test:vector  ETV
attr source BitTorrentClient_DownloadComplete_Test
attr title "Descargas completas (prueba), vector"
39	22208 66 121 77546263 36001 36142.975994966147 2 36001 36142.975994966 72143.975994966 2602386714.7727
vector 41  BasicTopology.peer[20].bitTorrentApp.bitTorrentClient  DownloadComplete_Test:vector  ETV
attr source BitTorrentClient_DownloadComplete_Test
attr title "Descargas completas (prueba), vector"
41	22274 66 122 78777132 36001 36148.267393436065 2 36001 36148.267393436 72149.267393436 2602769236.5473
vector 43  BasicTopology.peer[21].bitTorrentApp.bitTorrentClient  DownloadComplete_Test:vector  ETV
attr source BitTorrentClient_DownloadComplete_Test
attr title "Descargas completas (prueba), vector"
43	22340 66 123 80471347 36001 36155.641164485722 2 36001 36155.641164486 72156.641164486 2603302389.0151
vector 45  BasicTopology.peer[22].bitTorrentApp.bitTorrentClient  DownloadComplete_Test:vector  ETV
attr source BitTorrentClient_DownloadComplete_Test
attr title "Descargas completas (prueba), vector"
45	22406 65 124 36593181 36001 36061.10101675153 2 36001 36061.101016752 72062.101016752 2596475007.5404
vector 47  BasicTopology.peer[23].bitTorrentApp.bitTorrentClient  DownloadComplete_Test:vector  ETV
attr source BitTorrentClient_DownloadComplete_Test
attr title "Descargas completas (prueba), vector"
47	22471 66 125 61827655 36001 36105.237409147763 2 36001 36105.237409148 72106.237409148 2599660169.3709
vector 49  BasicTopology.peer[24].bitTorrentApp.bitTorrentClient  DownloadComplete_Test:vector  ETV
attr source BitTorrentClient_DownloadComplete_Test
attr title "Descargas completas (prueba), vector"
49	22537 66 126 73625020 36001 36131.554554282764 2 36001 36131.554554283 72132.554554283 2601561235.5091
vector 833  BasicTopology.peer[0].bitTorrentApp.bitTorrentClient.contentManager_26  TotalBytesUploaded:vector  ETV
attr source ContentManager_TotalBytesUploaded
attr title "Total of Bytes Uploaded, vector"
attr unit B
833	22603 17742 128064 77459022 36001.108844073894 36142.815061175827 452 16384 7405568 1677361152 8.2903686761677e+15
vector 848  BasicTopology.peer[2].bitTorrentApp.bitTorrentClient.contentManager_26  TotalBytesDownloaded:vector  ETV
attr source ContentManager_TotalBytesDownloaded
attr title "Total of Bytes Downloaded, vector"
attr unit B
848	56897 7516 437292 43032534 36002.543777969754 36072.100487514608 192 16384 3145728 303562752 6.3827508985856e+14
vector 976  BasicTopology.peer[18].bitTorrentApp.bitTorrentClient.contentManager_26  TotalBytesDownloaded:vector  ETV
attr source ContentManager_TotalBytesDownloaded
attr title "Total of Bytes Downloaded, vector"
attr unit B
976	305066 8127 570613 78176720 36002.765162666934 36145.583525527326 206 16384 3375104 349323264 7.879093345321e+14
vector 984  BasicTopology.peer[19].bitTorrentApp.bitTorrentClient.contentManager_26  TotalBytesDownloaded:vector  ETV
attr source ContentManager_TotalBytesDownloaded
attr title "Total of Bytes Downloaded, vector"
attr unit B
984	318136 8729 637888 77546263 36002.882746424579 36142.975994966147 221 16384 3620864 401915904 9.7238354860442e+14
vector 912  BasicTopology.peer[10].bitTorrentApp.bitTorrentClient.contentManager_26  TotalBytesDownloaded:vector  ETV
attr source ContentManager_TotalBytesDownloaded
attr title "Total of Bytes Downloaded, vector"
attr unit B
912	191912 7507 668944 40969917 36002.93866089948 36068.719125761899 192 16384 3145728 303562752 6.3827508985856e+14
vector 911  BasicTopology.peer[10].bitTorrentApp.bitTorrentClient.contentManager_26  PiecesDownloaded:vector  ETV
attr source ContentManager_PieceDownloaded
attr title "Pieces Downloaded, vector"
911	191093 819 863500 40969917 36004.0527073886 36068.719125761899 24 0 23 276 4324
vector 913  BasicTopology.peer[10].bitTorrentApp.bitTorrentClient.contentManager_26  TotalBytesUploaded:vector  ETV
attr source ContentManager_TotalBytesUploaded
attr title "Total of Bytes Uploaded, vector"
attr unit B
913	199419 18026 914128 74282201 36004.102676603994 36133.577853931311 458 16384 7503872 1722138624 8.6245437069066e+15
vector 840  BasicTopology.peer[1].bitTorrentApp.bitTorrentClient.contentManager_26  TotalBytesDownloaded:vector  ETV
attr source ContentManager_TotalBytesDownloaded
attr title "Total of Bytes Downloaded, vector"
attr unit B
840	41165 8013 984648 62328112 36004.215585052011 36106.449410064588 204 16384 3342336 342589440 7.6523700748288e+14
vector 847  BasicTopology.peer[2].bitTorrentApp.bitTorrentClient.contentManager_26  PiecesDownloaded:vector  ETV
attr source ContentManager_PieceDownloaded
attr title "Pieces Downloaded, vector"
847	56082 815 1115894 43032534 36004.79063034207 36072.100487514608 24 0 23 276 4324
vector 849  BasicTopology.peer[2].bitTorrentApp.bitTorrentClient.contentManager_26  TotalBytesUploaded:vector  ETV
attr source ContentManager_TotalBytesUploaded
attr title "Total of Bytes Uploaded, vector"
attr unit B
849	64413 13071 1121935 71916589 36004.800798602015 36127.784383337 333 16384 5455872 911130624 3.3189840279306e+15
vector 936  BasicTopology.peer[13].bitTorrentApp.bitTorrentClient.contentManager_26  TotalBytesDownloaded:vector  ETV
attr source ContentManager_TotalBytesDownloaded
attr title "Total of Bytes Downloaded, vector"
attr unit B
936	238586 7573 1169614 71863618 36004.908844386137 36127.6205433556 192 16384 3145728 303562752 6.3827508985856e+14
vector 992  BasicTopology.peer[20].bitTorrentApp.bitTorrentClient.contentManager_26  TotalBytesDownloaded:vector  ETV
attr source ContentManager_TotalBytesDownloaded
attr title "Total of Bytes Downloaded, vector"
attr unit B
992	327921 7573 1322488 78777132 36005.546901556337 36148.267393436065 192 16384 3145728 303562752 6.3827508985856e+14
vector 1008  BasicTopology.peer[22].bitTorrentApp.bitTorrentClient.contentManager_26  TotalBytesDownloaded:vector  ETV
attr source ContentManager_TotalBytesDownloaded
attr title "Total of Bytes Downloaded, vector"
attr unit B
1008	367988 8001 1376444 36593181 36005.758712853782 36061.10101675153 198 16384 3244032 322781184 6.9983780890214e+14
vector 944  BasicTopology.peer[14].bitTorrentApp.bitTorrentClient.contentManager_26  TotalBytesDownloaded:vector  ETV
attr source ContentManager_TotalBytesDownloaded
attr title "Total of Bytes Downloaded, vector"
attr unit B
944	251348 7559 1544596 73529913 36006.203798723209 36131.332744651022 192 16384 3145728 303562752 6.3827508985856e+14
vector 880  BasicTopology.peer[6].bitTorrentApp.bitTorrentClient.contentManager_26  TotalBytesDownloaded:vector  ETV
attr source ContentManager_TotalBytesDownloaded
attr title "Total of Bytes Downloaded, vector"
attr unit B
880	131025 7645 1680275 74330281 36006.518620692538 36133.67859806212 194 16384 3178496 309903360 6.5837687898112e+14
vector 896  BasicTopology.peer[8].bitTorrentApp.bitTorrentClient.contentManager_26  TotalBytesDownloaded:vector  ETV
attr source ContentManager_TotalBytesDownloaded
attr title "Total of Bytes Downloaded, vector"
attr unit B
896	164101 8054 1736805 76015862 36006.615446521528 36137.474966585963 204 16384 3342336 342589440 7.6523700748288e+14
vector 839  BasicTopology.peer[1].bitTorrentApp.bitTorrentClient.contentManager_26  PiecesDownloaded:vector  ETV
attr source ContentManager_PieceDownloaded
attr title "Pieces Downloaded, vector"
839	40345 820 1745853 62328112 36006.62990054993 36106.449410064588 24 0 23 276 4324
vector 841  BasicTopology.peer[1].bitTorrentApp.bitTorrentClient.contentManager_26  TotalBytesUploaded:vector  ETV
attr source ContentManager_TotalBytesUploaded
attr title "Total of Bytes Uploaded, vector"
attr unit B
841	49178 6904 1812729 79750620 36006.724615707981 36153.133001230753 176 16384 2883584 255197184 4.9198206130586e+14
vector 1024  BasicTopology.peer[24].bitTorrentApp.bitTorrentClient.contentManager_26  TotalBytesDownloaded:vector  ETV
attr source ContentManager_TotalBytesDownloaded
attr title "Total of Bytes Downloaded, vector"
attr unit B
1024	410293 8581 1874693 73625020 36006.83357305467 36131.554554282764 212 16384 3473408 369917952 8.586042277888e+14
vector 952  BasicTopology.peer[15].bitTorrentApp.bitTorrentClient.contentManager_26  TotalBytesDownloaded:vector  ETV
attr source ContentManager_TotalBytesDownloaded
attr title "Total of Bytes Downloaded, vector"
attr unit B
952	271094 7582 1942441 70536688 36006.977550201184 36124.559022297223 192 16384 3145728 303562752 6.3827508985856e+14
vector 943  BasicTopology.peer[14].bitTorrentApp.bitTorrentClient.contentManager_26  PiecesDownloaded:vector  ETV
attr source ContentManager_PieceDownloaded
attr title "Pieces Downloaded, vector"
943	250526 822 2140455 73529913 36007.561097544747 36131.332744651022 24 0 23 276 4324
vector 945  BasicTopology.peer[14].bitTorrentApp.bitTorrentClient.contentManager_26  TotalBytesUploaded:vector  ETV
attr source ContentManager_TotalBytesUploaded
attr title "Total of Bytes Uploaded, vector"
attr unit B
945	258907 11360 2173559 69022033 36007.631897187767 36120.52094189043 288 16384 4718592 681836544 2.1485960445297e+15
vector 991  BasicTopology.peer[20].bitTorrentApp.bitTorrentClient.contentManager_26  PiecesDownloaded:vector  ETV
attr source ContentManager_PieceDownloaded
attr title "Pieces Downloaded, vector"
991	327093 828 2234834 78777132 36007.749501217881 36148.267393436065 24 0 23 276 4324
vector 993  BasicTopology.peer[20].bitTorrentApp.bitTorrentClient.contentManager_26  TotalBytesUploaded:vector  ETV
attr source ContentManager_TotalBytesUploaded
attr title "Total of Bytes Uploaded, vector"
attr unit B
993	335494 15534 2253534 79158404 36007.808453412877 36150.399274491333 392 16384 6422528 1262026752 5.410493783081e+15
vector 975  BasicTopology.peer[18].bitTorrentApp.bitTorrentClient.contentManager_26  PiecesDownloaded:vector  ETV
attr source ContentManager_PieceDownloaded
attr title "Pieces Downloaded, vector"
975	304240 826 2803448 78176720 36008.889410485921 36145.583525527326 24 0 23 276 4324
vector 977  BasicTopology.peer[18].bitTorrentApp.bitTorrentClient.contentManager_26  TotalBytesUploaded:vector  ETV
attr source ContentManager_TotalBytesUploaded
attr title "Total of Bytes Uploaded, vector"
attr unit B
977	313193 4117 2828071 78276651 36008.928349366143 36146.68300453614 106 16384 1736704 92913664 1.080831204393e+14
vector 904  BasicTopology.peer[9].bitTorrentApp.bitTorrentClient.contentManager_26  TotalBytesDownloaded:vector  ETV
attr source ContentManager_TotalBytesDownloaded
attr title "Total of Bytes Downloaded, vector"
attr unit B
904	177973 7569 2907211 74988121 36009.048221151824 36135.27568143714 192 16384 3145728 303562752 6.3827508985856e+14
vector 1007  BasicTopology.peer[22].bitTorrentApp.bitTorrentClient.contentManager_26  PiecesDownloaded:vector  ETV
attr source ContentManager_PieceDownloaded
attr title "Pieces Downloaded, vector"
1007	367139 849 2965712 36593181 36009.120950314063 36061.10101675153 24 0 23 276 4324
vector 1009  BasicTopology.peer[22].bitTorrentApp.bitTorrentClient.contentManager_26  TotalBytesUploaded:vector  ETV
attr source ContentManager_TotalBytesUploaded
attr title "Total of Bytes Uploaded, vector"
attr unit B
1009	375989 15435 3013139 79064047 36009.183022124266 36150.064594980827 381 16384 6242304 1192280064 4.9682278472745e+15
vector 888  BasicTopology.peer[7].bitTorrentApp.bitTorrentClient.contentManager_26  TotalBytesDownloaded:vector  ETV
attr source ContentManager_TotalBytesDownloaded
attr title "Total of Bytes Downloaded, vector"
attr unit B
888	149799 7575 3031149 79213091 36009.207792086328 36150.521201080415 192 16384 3145728 303562752 6.3827508985856e+14
vector 872  BasicTopology.peer[5].bitTorrentApp.bitTorrentClient.contentManager_26  TotalBytesDownloaded:vector  ETV
attr source ContentManager_TotalBytesDownloaded
attr title "Total of Bytes Downloaded, vector"
attr unit B
872	115590 7560 3223094 72974492 36009.558123222481 36130.088936713286 192 16384 3145728 303562752 6.3827508985856e+14
vector 920  BasicTopology.peer[11].bitTorrentApp.bitTorrentClient.contentManager_26  TotalBytesDownloaded:vector  ETV
attr source ContentManager_TotalBytesDownloaded
attr title "Total of Bytes Downloaded, vector"
attr unit B
920	218272 7848 3368811 71813279 36009.900171351699 36127.462290616318 199 16384 3260416 326041600 7.104681213952e+14
vector 864  BasicTopology.peer[4].bitTorrentApp.bitTorrentClient.contentManager_26  TotalBytesDownloaded:vector  ETV
attr source ContentManager_TotalBytesDownloaded
attr title "Total of Bytes Downloaded, vector"
attr unit B
864	103861 7580 3583096 66899592 36010.143332601895 36116.056716501039 192 16384 3145728 303562752 6.3827508985856e+14
vector 856  BasicTopology.peer[3].bitTorrentApp.bitTorrentClient.contentManager_26  TotalBytesDownloaded:vector  ETV
attr source ContentManager_TotalBytesDownloaded
attr title "Total of Bytes Downloaded, vector"
attr unit B
856	78309 7560 3743067 58144509 36010.419655882768 36098.129353303492 192 16384 3145728 303562752 6.3827508985856e+14
vector 935  BasicTopology.peer[13].bitTorrentApp.bitTorrentClient.contentManager_26  PiecesDownloaded:vector  ETV
attr source ContentManager_PieceDownloaded
attr title "Pieces Downloaded, vector"
935	237763 823 3968020 71863618 36010.838021742213 36127.6205433556 24 0 23 276 4324
vector 895  BasicTopology.peer[8].bitTorrentApp.bitTorrentClient.contentManager_26  PiecesDownloaded:vector  ETV
attr source ContentManager_PieceDownloaded
attr title "Pieces Downloaded, vector"
895	163274 827 4174225 76015862 36011.232477095158 36137.474966585963 24 0 23 276 4324
vector 897  BasicTopology.peer[8].bitTorrentApp.bitTorrentClient.contentManager_26  TotalBytesUploaded:vector  ETV
attr source ContentManager_TotalBytesUploaded
attr title "Total of Bytes Uploaded, vector"
attr unit B
897	172155 4994 4186930 56297003 36011.248276657568 36095.107438506001 128 16384 2097152 135266304 1.8985473435238e+14
vector 951  BasicTopology.peer[15].bitTorrentApp.bitTorrentClient.contentManager_26  PiecesDownloaded:vector  ETV
attr source ContentManager_PieceDownloaded
attr title "Pieces Downloaded, vector"
951	270267 827 4318806 70536688 36011.498491864753 36124.559022297223 24 0 23 276 4324
vector 953  BasicTopology.peer[15].bitTorrentApp.bitTorrentClient.contentManager_26  TotalBytesUploaded:vector  ETV
attr source ContentManager_TotalBytesUploaded
attr title "Total of Bytes Uploaded, vector"
attr unit B
953	278676 3090 4353561 41247129 36011.541732475681 36069.166077965075 80 16384 1310720 53084160 46675557089280
vector 960  BasicTopology.peer[16].bitTorrentApp.bitTorrentClient.contentManager_26  TotalBytesDownloaded:vector  ETV
attr source ContentManager_TotalBytesDownloaded
attr title "Total of Bytes Downloaded, vector"
attr unit B
960	282591 7577 4472156 79109615 36011.763216811188 36150.215424906445 192 16384 3145728 303562752 6.3827508985856e+14
vector 1016  BasicTopology.peer[23].bitTorrentApp.bitTorrentClient.contentManager_26  TotalBytesDownloaded:vector  ETV
attr source ContentManager_TotalBytesDownloaded
attr title "Total of Bytes Downloaded, vector"
attr unit B
1016	392274 8746 4548119 61827655 36011.884133452245 36105.237409147763 216 16384 3538944 383975424 9.0800869972378e+14
vector 871  BasicTopology.peer[5].bitTorrentApp.bitTorrentClient.contentManager_26  PiecesDownloaded:vector  ETV
attr source ContentManager_PieceDownloaded
attr title "Pieces Downloaded, vector"
871	114768 822 4570203 72974492 36011.917696428818 36130.088936713286 24 0 23 276 4324
vector 873  BasicTopology.peer[5].bitTorrentApp.bitTorrentClient.contentManager_26  TotalBytesUploaded:vector  ETV
attr source ContentManager_TotalBytesUploaded
attr title "Total of Bytes Uploaded, vector"
attr unit B
873	123150 7047 4611288 62175049 36012.002418566125 36106.047372135538 180 16384 2949120 266895360 5.2619523391488e+14
vector 887  BasicTopology.peer[7].bitTorrentApp.bitTorrentClient.contentManager_26  PiecesDownloaded:vector  ETV
attr source ContentManager_PieceDownloaded
attr title "Pieces Downloaded, vector"
887	148973 826 4922208 79213091 36012.527463782568 36150.521201080415 24 0 23 276 4324
vector 889  BasicTopology.peer[7].bitTorrentApp.bitTorrentClient.contentManager_26  TotalBytesUploaded:vector  ETV
attr source ContentManager_TotalBytesUploaded
attr title "Total of Bytes Uploaded, vector"
attr unit B
889	157374 5900 5010703 79080877 36012.630881153555 36150.124169566126 150 16384 2457600 185548800 3.050164977664e+14
vector 1015  BasicTopology.peer[23].bitTorrentApp.bitTorrentClient.contentManager_26  PiecesDownloaded:vector  ETV
attr source ContentManager_PieceDownloaded
attr title "Pieces Downloaded, vector"
1015	391424 850 5368742 61827655 36013.08946295382 36105.237409147763 24 0 23 276 4324
vector 1000  BasicTopology.peer[21].bitTorrentApp.bitTorrentClient.contentManager_26  TotalBytesDownloaded:vector  ETV
attr source ContentManager_TotalBytesDownloaded
attr title "Total of Bytes Downloaded, vector"
attr unit B
1000	351851 8089 5437544 80471347 36013.245019283815 36155.641164485722 200 16384 3276800 329318400 7.212055396352e+14
vector 903  BasicTopology.peer[9].bitTorrentApp.bitTorrentClient.contentManager_26  PiecesDownloaded:vector  ETV
attr source ContentManager_PieceDownloaded
attr title "Pieces Downloaded, vector"
903	177149 824 5446322 74988121 36013.255407100451 36135.27568143714 24 0 23 276 4324
vector 905  BasicTopology.peer[9].bitTorrentApp.bitTorrentClient.contentManager_26  TotalBytesUploaded:vector  ETV
attr source ContentManager_TotalBytesUploaded
attr title "Total of Bytes Uploaded, vector"
attr unit B
905	185542 5551 5470436 61107511 36013.286192041495 36103.845949233611 141 16384 2310144 164020224 2.5350266001818e+14
vector 937  BasicTopology.peer[13].bitTorrentApp.bitTorrentClient.contentManager_26  TotalBytesUploaded:vector  ETV
attr source ContentManager_TotalBytesUploaded
attr title "Total of Bytes Uploaded, vector"
attr unit B
937	246159 4367 5589604 65394773 36013.493498813754 36112.926220404267 112 16384 1835008 103677952 1.273994674176e+14
vector 855  BasicTopology.peer[3].bitTorrentApp.bitTorrentClient.contentManager_26  PiecesDownloaded:vector  ETV
attr source ContentManager_PieceDownloaded
attr title "Pieces Downloaded, vector"
855	77484 825 5875567 58144509 36014.039091202227 36098.129353303492 24 0 23 276 4324
vector 863  BasicTopology.peer[4].bitTorrentApp.bitTorrentClient.contentManager_26  PiecesDownloaded:vector  ETV
attr source ContentManager_PieceDownloaded
attr title "Pieces Downloaded, vector"
863	103036 825 5957970 66899592 36014.159636168609 36116.056716501039 24 0 23 276 4324
vector 928  BasicTopology.peer[12].bitTorrentApp.bitTorrentClient.contentManager_26  TotalBytesDownloaded:vector  ETV
attr source ContentManager_TotalBytesDownloaded
attr title "Total of Bytes Downloaded, vector"
attr unit B
928	227566 7594 5976419 74677813 36014.192409460602 36134.670524303941 192 16384 3145728 303562752 6.3827508985856e+14
vector 968  BasicTopology.peer[17].bitTorrentApp.bitTorrentClient.contentManager_26  TotalBytesDownloaded:vector  ETV
attr source ContentManager_TotalBytesDownloaded
attr title "Total of Bytes Downloaded, vector"
attr unit B
968	294998 8012 6024091 79851367 36014.268979889262 36153.346965360292 203 16384 3325952 339247104 7.5406579754598e+14
vector 919  BasicTopology.peer[11].bitTorrentApp.bitTorrentClient.contentManager_26  PiecesDownloaded:vector  ETV
attr source ContentManager_PieceDownloaded
attr title "Pieces Downloaded, vector"
919	217445 827 6074455 71813279 36014.331133418356 36127.462290616318 24 0 23 276 4324
vector 879  BasicTopology.peer[6].bitTorrentApp.bitTorrentClient.contentManager_26  PiecesDownloaded:vector  ETV
attr source ContentManager_PieceDownloaded
attr title "Pieces Downloaded, vector"
879	130197 828 6510270 72722664 36015.073908101322 36129.544355728947 24 0 23 276 4324
vector 857  BasicTopology.peer[3].bitTorrentApp.bitTorrentClient.contentManager_26  TotalBytesUploaded:vector  ETV
attr source ContentManager_TotalBytesUploaded
attr title "Total of Bytes Uploaded, vector"
attr unit B
857	85869 17167 6518686 58178814 36015.083158297484 36098.185897404001 432 16384 7077888 1532362752 7.2389633664614e+15
vector 983  BasicTopology.peer[19].bitTorrentApp.bitTorrentClient.contentManager_26  PiecesDownloaded:vector  ETV
attr source ContentManager_PieceDownloaded
attr title "Pieces Downloaded, vector"
983	317310 826 6570240 77546263 36015.156409770077 36142.975994966147 24 0 23 276 4324
vector 959  BasicTopology.peer[16].bitTorrentApp.bitTorrentClient.contentManager_26  PiecesDownloaded:vector  ETV
attr source ContentManager_PieceDownloaded
attr title "Pieces Downloaded, vector"
959	281766 825 6591502 79109615 36015.204782772582 36150.215424906445 24 0 23 276 4324
vector 967  BasicTopology.peer[17].bitTorrentApp.bitTorrentClient.contentManager_26  PiecesDownloaded:vector  ETV
attr source ContentManager_PieceDownloaded
attr title "Pieces Downloaded, vector"
967	294173 825 6810641 79851367 36015.600913805765 36153.346965360292 24 0 23 276 4324
vector 969  BasicTopology.peer[17].bitTorrentApp.bitTorrentClient.contentManager_26  TotalBytesUploaded:vector  ETV
attr source ContentManager_TotalBytesUploaded
attr title "Total of Bytes Uploaded, vector"
attr unit B
969	303010 1230 6866880 36933266 36015.682893435031 36061.654836096765 32 16384 524288 8650752 3070901616640
vector 1017  BasicTopology.peer[23].bitTorrentApp.bitTorrentClient.contentManager_26  TotalBytesUploaded:vector  ETV
attr source ContentManager_TotalBytesUploaded
attr title "Total of Bytes Uploaded, vector"
attr unit B
1017	401020 8425 6899094 74192686 36015.741724109403 36133.184188334504 208 16384 3407872 356122624 8.1102511695462e+14
vector 1023  BasicTopology.peer[24].bitTorrentApp.bitTorrentClient.contentManager_26  PiecesDownloaded:vector  ETV
attr source ContentManager_PieceDownloaded
attr title "Pieces Downloaded, vector"
1023	409445 848 8339406 73625020 36018.06235794282 36131.554554282764 24 0 23 276 4324
vector 999  BasicTopology.peer[21].bitTorrentApp.bitTorrentClient.contentManager_26  PiecesDownloaded:vector  ETV
attr source ContentManager_PieceDownloaded
attr title "Pieces Downloaded, vector"
999	351028 823 8377448 80471347 36018.114467495026 36155.641164485722 24 0 23 276 4324
vector 1001  BasicTopology.peer[21].bitTorrentApp.bitTorrentClient.contentManager_26  TotalBytesUploaded:vector  ETV
attr source ContentManager_TotalBytesUploaded
attr title "Total of Bytes Uploaded, vector"
attr unit B
1001	359940 7199 8441866 71235802 36018.234655161115 36126.136107522358 178 16384 2916352 261013504 5.0889698469478e+14
vector 961  BasicTopology.peer[16].bitTorrentApp.bitTorrentClient.contentManager_26  TotalBytesUploaded:vector  ETV
attr source ContentManager_TotalBytesUploaded
attr title "Total of Bytes Uploaded, vector"
attr unit B
961	290168 4005 12976898 57442461 36025.079360346051 36096.999417463266 102 16384 1671168 86065152 96356249108480
vector 865  BasicTopology.peer[4].bitTorrentApp.bitTorrentClient.contentManager_26  TotalBytesUploaded:vector  ETV
attr source ContentManager_TotalBytesUploaded
attr title "Total of Bytes Uploaded, vector"
attr unit B
865	111441 3327 14389248 44157203 36027.234248018351 36073.921983231936 85 16384 1392640 59883520 55924500725760
vector 881  BasicTopology.peer[6].bitTorrentApp.bitTorrentClient.contentManager_26  TotalBytesUploaded:vector  ETV
attr source ContentManager_TotalBytesUploaded
attr title "Total of Bytes Uploaded, vector"
attr unit B
881	138670 10303 18456114 65116333 36033.4292930983 36112.078283110886 260 16384 4259840 555909120 1.5817586088346e+15
vector 927  BasicTopology.peer[12].bitTorrentApp.bitTorrentClient.contentManager_26  PiecesDownloaded:vector  ETV
attr source ContentManager_PieceDownloaded
attr title "Pieces Downloaded, vector"
927	226736 830 22890178 74677813 36039.939994424724 36134.670524303941 24 0 23 276 4324