version 2
run Test-8-20200526-14:53:03-7068
attr configname Test
attr datetime 20200526-14:53:03
attr experiment "\"Simulation Test\""
attr inifile BasicConfig.ini
attr iterationvars ""
attr iterationvars2 $repetition=8
attr measurement "\"Peers: $peers, Rate: $rate\""
attr network BasicTopology
attr processid 7068
attr repetition 8
attr replication #8
attr resultdir results
attr runnumber 8
attr seedset 8

vector 3  BasicTopology.peer[1].bitTorrentApp.bitTorrentClient  DownloadComplete_Test:vector  ETV
attr source  BitTorrentClient_DownloadComplete_Test
attr title  "Descargas completas (prueba), vector"
vector 5  BasicTopology.peer[2].bitTorrentApp.bitTorrentClient  DownloadComplete_Test:vector  ETV
attr source  BitTorrentClient_DownloadComplete_Test
attr title  "Descargas completas (prueba), vector"
vector 7  BasicTopology.peer[3].bitTorrentApp.bitTorrentClient  DownloadComplete_Test:vector  ETV
attr source  BitTorrentClient_DownloadComplete_Test
attr title  "Descargas completas (prueba), vector"
vector 9  BasicTopology.peer[4].bitTorrentApp.bitTorrentClient  DownloadComplete_Test:vector  ETV
attr source  BitTorrentClient_DownloadComplete_Test
attr title  "Descargas completas (prueba), vector"
vector 11  BasicTopology.peer[5].bitTorrentApp.bitTorrentClient  DownloadComplete_Test:vector  ETV
attr source  BitTorrentClient_DownloadComplete_Test
attr title  "Descargas completas (prueba), vector"
vector 13  BasicTopology.peer[6].bitTorrentApp.bitTorrentClient  DownloadComplete_Test:vector  ETV
attr source  BitTorrentClient_DownloadComplete_Test
attr title  "Descargas completas (prueba), vector"
vector 15  BasicTopology.peer[7].bitTorrentApp.bitTorrentClient  DownloadComplete_Test:vector  ETV
attr source  BitTorrentClient_DownloadComplete_Test
attr title  "Descargas completas (prueba), vector"
vector 17  BasicTopology.peer[8].bitTorrentApp.bitTorrentClient  DownloadComplete_Test:vector  ETV
attr source  BitTorrentClient_DownloadComplete_Test
attr title  "Descargas completas (prueba), vector"
vector 19  BasicTopology.peer[9].bitTorrentApp.bitTorrentClient  DownloadComplete_Test:vector  ETV
attr source  BitTorrentClient_DownloadComplete_Test
attr title  "Descargas completas (prueba), vector"
vector 21  BasicTopology.peer[10].bitTorrentApp.bitTorrentClient  DownloadComplete_Test:vector  ETV
attr source  BitTorrentClient_DownloadComplete_Test
attr title  "Descargas completas (prueba), vector"
vector 23  BasicTopology.peer[11].bitTorrentApp.bitTorrentClient  DownloadComplete_Test:vector  ETV
attr source  BitTorrentClient_DownloadComplete_Test
attr title  "Descargas completas (prueba), vector"
vector 25  BasicTopology.peer[12].bitTorrentApp.bitTorrentClient  DownloadComplete_Test:vector  ETV
attr source  BitTorrentClient_DownloadComplete_Test
attr title  "Descargas completas (prueba), vector"
vector 27  BasicTopology.peer[13].bitTorrentApp.bitTorrentClient  DownloadComplete_Test:vector  ETV
attr source  BitTorrentClient_DownloadComplete_Test
attr title  "Descargas completas (prueba), vector"
vector 29  BasicTopology.peer[14].bitTorrentApp.bitTorrentClient  DownloadComplete_Test:vector  ETV
attr source  BitTorrentClient_DownloadComplete_Test
attr title  "Descargas completas (prueba), vector"
vector 31  BasicTopology.peer[15].bitTorrentApp.bitTorrentClient  DownloadComplete_Test:vector  ETV
attr source  BitTorrentClient_DownloadComplete_Test
attr title  "Descargas completas (prueba), vector"
vector 33  BasicTopology.peer[16].bitTorrentApp.bitTorrentClient  DownloadComplete_Test:vector  ETV
attr source  BitTorrentClient_DownloadComplete_Test
attr title  "Descargas completas (prueba), vector"
vector 35  BasicTopology.peer[17].bitTorrentApp.bitTorrentClient  DownloadComplete_Test:vector  ETV
attr source  BitTorrentClient_DownloadComplete_Test
attr title  "Descargas completas (prueba), vector"
vector 37  BasicTopology.peer[18].bitTorrentApp.bitTorrentClient  DownloadComplete_Test:vector  ETV
attr source  BitTorrentClient_DownloadComplete_Test
attr title  "Descargas completas (prueba), vector"
vector 39  BasicTopology.peer[19].bitTorrentApp.bitTorrentClient  DownloadComplete_Test:vector  ETV
attr source  BitTorrentClient_DownloadComplete_Test
attr title  "Descargas completas (prueba), vector"
vector 41  BasicTopology.peer[20].bitTorrentApp.bitTorrentClient  DownloadComplete_Test:vector  ETV
attr source  BitTorrentClient_DownloadComplete_Test
attr title  "Descargas completas (prueba), vector"
vector 43  BasicTopology.peer[21].bitTorrentApp.bitTorrentClient  DownloadComplete_Test:vector  ETV
attr source  BitTorrentClient_DownloadComplete_Test
attr title  "Descargas completas (prueba), vector"
vector 45  BasicTopology.peer[22].bitTorrentApp.bitTorrentClient  DownloadComplete_Test:vector  ETV
attr source  BitTorrentClient_DownloadComplete_Test
attr title  "Descargas completas (prueba), vector"
vector 47  BasicTopology.peer[23].bitTorrentApp.bitTorrentClient  DownloadComplete_Test:vector  ETV
attr source  BitTorrentClient_DownloadComplete_Test
attr title  "Descargas completas (prueba), vector"
vector 49  BasicTopology.peer[24].bitTorrentApp.bitTorrentClient  DownloadComplete_Test:vector  ETV
attr source  BitTorrentClient_DownloadComplete_Test
attr title  "Descargas completas (prueba), vector"
vector 833  BasicTopology.peer[0].bitTorrentApp.bitTorrentClient.contentManager_26  TotalBytesUploaded:vector  ETV
attr source  ContentManager_TotalBytesUploaded
attr title  "Total of Bytes Uploaded, vector"
attr unit  B
vector 992  BasicTopology.peer[20].bitTorrentApp.bitTorrentClient.contentManager_26  TotalBytesDownloaded:vector  ETV
attr source  ContentManager_TotalBytesDownloaded
attr title  "Total of Bytes Downloaded, vector"
attr unit  B
vector 991  BasicTopology.peer[20].bitTorrentApp.bitTorrentClient.contentManager_26  PiecesDownloaded:vector  ETV
attr source  ContentManager_PieceDownloaded
attr title  "Pieces Downloaded, vector"
vector 993  BasicTopology.peer[20].bitTorrentApp.bitTorrentClient.contentManager_26  TotalBytesUploaded:vector  ETV
attr source  ContentManager_TotalBytesUploaded
attr title  "Total of Bytes Uploaded, vector"
attr unit  B
vector 912  BasicTopology.peer[10].bitTorrentApp.bitTorrentClient.contentManager_26  TotalBytesDownloaded:vector  ETV
attr source  ContentManager_TotalBytesDownloaded
attr title  "Total of Bytes Downloaded, vector"
attr unit  B
vector 920  BasicTopology.peer[11].bitTorrentApp.bitTorrentClient.contentManager_26  TotalBytesDownloaded:vector  ETV
attr source  ContentManager_TotalBytesDownloaded
attr title  "Total of Bytes Downloaded, vector"
attr unit  B
vector 1008  BasicTopology.peer[22].bitTorrentApp.bitTorrentClient.contentManager_26  TotalBytesDownloaded:vector  ETV
attr source  ContentManager_TotalBytesDownloaded
attr title  "Total of Bytes Downloaded, vector"
attr unit  B
vector 1007  BasicTopology.peer[22].bitTorrentApp.bitTorrentClient.contentManager_26  PiecesDownloaded:vector  ETV
attr source  ContentManager_PieceDownloaded
attr title  "Pieces Downloaded, vector"
vector 856  BasicTopology.peer[3].bitTorrentApp.bitTorrentClient.contentManager_26  TotalBytesDownloaded:vector  ETV
attr source  ContentManager_TotalBytesDownloaded
attr title  "Total of Bytes Downloaded, vector"
attr unit  B
vector 1009  BasicTopology.peer[22].bitTorrentApp.bitTorrentClient.contentManager_26  TotalBytesUploaded:vector  ETV
attr source  ContentManager_TotalBytesUploaded
attr title  "Total of Bytes Uploaded, vector"
attr unit  B
vector 911  BasicTopology.peer[10].bitTorrentApp.bitTorrentClient.contentManager_26  PiecesDownloaded:vector  ETV
attr source  ContentManager_PieceDownloaded
attr title  "Pieces Downloaded, vector"
vector 913  BasicTopology.peer[10].bitTorrentApp.bitTorrentClient.contentManager_26  TotalBytesUploaded:vector  ETV
attr source  ContentManager_TotalBytesUploaded
attr title  "Total of Bytes Uploaded, vector"
attr unit  B
vector 936  BasicTopology.peer[13].bitTorrentApp.bitTorrentClient.contentManager_26  TotalBytesDownloaded:vector  ETV
attr source  ContentManager_TotalBytesDownloaded
attr title  "Total of Bytes Downloaded, vector"
attr unit  B
vector 944  BasicTopology.peer[14].bitTorrentApp.bitTorrentClient.contentManager_26  TotalBytesDownloaded:vector  ETV
attr source  ContentManager_TotalBytesDownloaded
attr title  "Total of Bytes Downloaded, vector"
attr unit  B
vector 1024  BasicTopology.peer[24].bitTorrentApp.bitTorrentClient.contentManager_26  TotalBytesDownloaded:vector  ETV
attr source  ContentManager_TotalBytesDownloaded
attr title  "Total of Bytes Downloaded, vector"
attr unit  B
vector 840  BasicTopology.peer[1].bitTorrentApp.bitTorrentClient.contentManager_26  TotalBytesDownloaded:vector  ETV
attr source  ContentManager_TotalBytesDownloaded
attr title  "Total of Bytes Downloaded, vector"
attr unit  B
vector 919  BasicTopology.peer[11].bitTorrentApp.bitTorrentClient.contentManager_26  PiecesDownloaded:vector  ETV
attr source  ContentManager_PieceDownloaded
attr title  "Pieces Downloaded, vector"
vector 921  BasicTopology.peer[11].bitTorrentApp.bitTorrentClient.contentManager_26  TotalBytesUploaded:vector  ETV
attr source  ContentManager_TotalBytesUploaded
attr title  "Total of Bytes Uploaded, vector"
attr unit  B
vector 848  BasicTopology.peer[2].bitTorrentApp.bitTorrentClient.contentManager_26  TotalBytesDownloaded:vector  ETV
attr source  ContentManager_TotalBytesDownloaded
attr title  "Total of Bytes Downloaded, vector"
attr unit  B
vector 880  BasicTopology.peer[6].bitTorrentApp.bitTorrentClient.contentManager_26  TotalBytesDownloaded:vector  ETV
attr source  ContentManager_TotalBytesDownloaded
attr title  "Total of Bytes Downloaded, vector"
attr unit  B
vector 976  BasicTopology.peer[18].bitTorrentApp.bitTorrentClient.contentManager_26  TotalBytesDownloaded:vector  ETV
attr source  ContentManager_TotalBytesDownloaded
attr title  "Total of Bytes Downloaded, vector"
attr unit  B
vector 896  BasicTopology.peer[8].bitTorrentApp.bitTorrentClient.contentManager_26  TotalBytesDownloaded:vector  ETV
attr source  ContentManager_TotalBytesDownloaded
attr title  "Total of Bytes Downloaded, vector"
attr unit  B
vector 839  BasicTopology.peer[1].bitTorrentApp.bitTorrentClient.contentManager_26  PiecesDownloaded:vector  ETV
attr source  ContentManager_PieceDownloaded
attr title  "Pieces Downloaded, vector"
vector 841  BasicTopology.peer[1].bitTorrentApp.bitTorrentClient.contentManager_26  TotalBytesUploaded:vector  ETV
attr source  ContentManager_TotalBytesUploaded
attr title  "Total of Bytes Uploaded, vector"
attr unit  B
vector 1000  BasicTopology.peer[21].bitTorrentApp.bitTorrentClient.contentManager_26  TotalBytesDownloaded:vector  ETV
attr source  ContentManager_TotalBytesDownloaded
attr title  "Total of Bytes Downloaded, vector"
attr unit  B
vector 895  BasicTopology.peer[8].bitTorrentApp.bitTorrentClient.contentManager_26  PiecesDownloaded:vector  ETV
attr source  ContentManager_PieceDownloaded
attr title  "Pieces Downloaded, vector"
vector 897  BasicTopology.peer[8].bitTorrentApp.bitTorrentClient.contentManager_26  TotalBytesUploaded:vector  ETV
attr source  ContentManager_TotalBytesUploaded
attr title  "Total of Bytes Uploaded, vector"
attr unit  B
vector 984  BasicTopology.peer[19].bitTorrentApp.bitTorrentClient.contentManager_26  TotalBytesDownloaded:vector  ETV
attr source  ContentManager_TotalBytesDownloaded
attr title  "Total of Bytes Downloaded, vector"
attr unit  B
vector 935  BasicTopology.peer[13].bitTorrentApp.bitTorrentClient.contentManager_26  PiecesDownloaded:vector  ETV
attr source  ContentManager_PieceDownloaded
attr title  "Pieces Downloaded, vector"
vector 937  BasicTopology.peer[13].bitTorrentApp.bitTorrentClient.contentManager_26  TotalBytesUploaded:vector  ETV
attr source  ContentManager_TotalBytesUploaded
attr title  "Total of Bytes Uploaded, vector"
attr unit  B
vector 864  BasicTopology.peer[4].bitTorrentApp.bitTorrentClient.contentManager_26  TotalBytesDownloaded:vector  ETV
attr source  ContentManager_TotalBytesDownloaded
attr title  "Total of Bytes Downloaded, vector"
attr unit  B
vector 863  BasicTopology.peer[4].bitTorrentApp.bitTorrentClient.contentManager_26  PiecesDownloaded:vector  ETV
attr source  ContentManager_PieceDownloaded
attr title  "Pieces Downloaded, vector"
vector 865  BasicTopology.peer[4].bitTorrentApp.bitTorrentClient.contentManager_26  TotalBytesUploaded:vector  ETV
attr source  ContentManager_TotalBytesUploaded
attr title  "Total of Bytes Uploaded, vector"
attr unit  B
vector 904  BasicTopology.peer[9].bitTorrentApp.bitTorrentClient.contentManager_26  TotalBytesDownloaded:vector  ETV
attr source  ContentManager_TotalBytesDownloaded
attr title  "Total of Bytes Downloaded, vector"
attr unit  B
vector 903  BasicTopology.peer[9].bitTorrentApp.bitTorrentClient.contentManager_26  PiecesDownloaded:vector  ETV
attr source  ContentManager_PieceDownloaded
attr title  "Pieces Downloaded, vector"
vector 905  BasicTopology.peer[9].bitTorrentApp.bitTorrentClient.contentManager_26  TotalBytesUploaded:vector  ETV
attr source  ContentManager_TotalBytesUploaded
attr title  "Total of Bytes Uploaded, vector"
attr unit  B
vector 960  BasicTopology.peer[16].bitTorrentApp.bitTorrentClient.contentManager_26  TotalBytesDownloaded:vector  ETV
attr source  ContentManager_TotalBytesDownloaded
attr title  "Total of Bytes Downloaded, vector"
attr unit  B
vector 983  BasicTopology.peer[19].bitTorrentApp.bitTorrentClient.contentManager_26  PiecesDownloaded:vector  ETV
attr source  ContentManager_PieceDownloaded
attr title  "Pieces Downloaded, vector"
vector 1023  BasicTopology.peer[24].bitTorrentApp.bitTorrentClient.contentManager_26  PiecesDownloaded:vector  ETV
attr source  ContentManager_PieceDownloaded
attr title  "Pieces Downloaded, vector"
vector 1025  BasicTopology.peer[24].bitTorrentApp.bitTorrentClient.contentManager_26  TotalBytesUploaded:vector  ETV
attr source  ContentManager_TotalBytesUploaded
attr title  "Total of Bytes Uploaded, vector"
attr unit  B
vector 968  BasicTopology.peer[17].bitTorrentApp.bitTorrentClient.contentManager_26  TotalBytesDownloaded:vector  ETV
attr source  ContentManager_TotalBytesDownloaded
attr title  "Total of Bytes Downloaded, vector"
attr unit  B
vector 952  BasicTopology.peer[15].bitTorrentApp.bitTorrentClient.contentManager_26  TotalBytesDownloaded:vector  ETV
attr source  ContentManager_TotalBytesDownloaded
attr title  "Total of Bytes Downloaded, vector"
attr unit  B
vector 872  BasicTopology.peer[5].bitTorrentApp.bitTorrentClient.contentManager_26  TotalBytesDownloaded:vector  ETV
attr source  ContentManager_TotalBytesDownloaded
attr title  "Total of Bytes Downloaded, vector"
attr unit  B
vector 943  BasicTopology.peer[14].bitTorrentApp.bitTorrentClient.contentManager_26  PiecesDownloaded:vector  ETV
attr source  ContentManager_PieceDownloaded
attr title  "Pieces Downloaded, vector"
vector 945  BasicTopology.peer[14].bitTorrentApp.bitTorrentClient.contentManager_26  TotalBytesUploaded:vector  ETV
attr source  ContentManager_TotalBytesUploaded
attr title  "Total of Bytes Uploaded, vector"
attr unit  B
vector 847  BasicTopology.peer[2].bitTorrentApp.bitTorrentClient.contentManager_26  PiecesDownloaded:vector  ETV
attr source  ContentManager_PieceDownloaded
attr title  "Pieces Downloaded, vector"
vector 975  BasicTopology.peer[18].bitTorrentApp.bitTorrentClient.contentManager_26  PiecesDownloaded:vector  ETV
attr source  ContentManager_PieceDownloaded
attr title  "Pieces Downloaded, vector"
vector 977  BasicTopology.peer[18].bitTorrentApp.bitTorrentClient.contentManager_26  TotalBytesUploaded:vector  ETV
attr source  ContentManager_TotalBytesUploaded
attr title  "Total of Bytes Uploaded, vector"
attr unit  B
vector 849  BasicTopology.peer[2].bitTorrentApp.bitTorrentClient.contentManager_26  TotalBytesUploaded:vector  ETV
attr source  ContentManager_TotalBytesUploaded
attr title  "Total of Bytes Uploaded, vector"
attr unit  B
vector 959  BasicTopology.peer[16].bitTorrentApp.bitTorrentClient.contentManager_26  PiecesDownloaded:vector  ETV
attr source  ContentManager_PieceDownloaded
attr title  "Pieces Downloaded, vector"
vector 855  BasicTopology.peer[3].bitTorrentApp.bitTorrentClient.contentManager_26  PiecesDownloaded:vector  ETV
attr source  ContentManager_PieceDownloaded
attr title  "Pieces Downloaded, vector"
vector 951  BasicTopology.peer[15].bitTorrentApp.bitTorrentClient.contentManager_26  PiecesDownloaded:vector  ETV
attr source  ContentManager_PieceDownloaded
attr title  "Pieces Downloaded, vector"
vector 999  BasicTopology.peer[21].bitTorrentApp.bitTorrentClient.contentManager_26  PiecesDownloaded:vector  ETV
attr source  ContentManager_PieceDownloaded
attr title  "Pieces Downloaded, vector"
vector 1016  BasicTopology.peer[23].bitTorrentApp.bitTorrentClient.contentManager_26  TotalBytesDownloaded:vector  ETV
attr source  ContentManager_TotalBytesDownloaded
attr title  "Total of Bytes Downloaded, vector"
attr unit  B
vector 888  BasicTopology.peer[7].bitTorrentApp.bitTorrentClient.contentManager_26  TotalBytesDownloaded:vector  ETV
attr source  ContentManager_TotalBytesDownloaded
attr title  "Total of Bytes Downloaded, vector"
attr unit  B
vector 928  BasicTopology.peer[12].bitTorrentApp.bitTorrentClient.contentManager_26  TotalBytesDownloaded:vector  ETV
attr source  ContentManager_TotalBytesDownloaded
attr title  "Total of Bytes Downloaded, vector"
attr unit  B
vector 927  BasicTopology.peer[12].bitTorrentApp.bitTorrentClient.contentManager_26  PiecesDownloaded:vector  ETV
attr source  ContentManager_PieceDownloaded
attr title  "Pieces Downloaded, vector"
vector 871  BasicTopology.peer[5].bitTorrentApp.bitTorrentClient.contentManager_26  PiecesDownloaded:vector  ETV
attr source  ContentManager_PieceDownloaded
attr title  "Pieces Downloaded, vector"
vector 961  BasicTopology.peer[16].bitTorrentApp.bitTorrentClient.contentManager_26  TotalBytesUploaded:vector  ETV
attr source  ContentManager_TotalBytesUploaded
attr title  "Total of Bytes Uploaded, vector"
attr unit  B
vector 967  BasicTopology.peer[17].bitTorrentApp.bitTorrentClient.contentManager_26  PiecesDownloaded:vector  ETV
attr source  ContentManager_PieceDownloaded
attr title  "Pieces Downloaded, vector"
vector 1015  BasicTopology.peer[23].bitTorrentApp.bitTorrentClient.contentManager_26  PiecesDownloaded:vector  ETV
attr source  ContentManager_PieceDownloaded
attr title  "Pieces Downloaded, vector"
vector 1017  BasicTopology.peer[23].bitTorrentApp.bitTorrentClient.contentManager_26  TotalBytesUploaded:vector  ETV
attr source  ContentManager_TotalBytesUploaded
attr title  "Total of Bytes Uploaded, vector"
attr unit  B
vector 879  BasicTopology.peer[6].bitTorrentApp.bitTorrentClient.contentManager_26  PiecesDownloaded:vector  ETV
attr source  ContentManager_PieceDownloaded
attr title  "Pieces Downloaded, vector"
vector 857  BasicTopology.peer[3].bitTorrentApp.bitTorrentClient.contentManager_26  TotalBytesUploaded:vector  ETV
attr source  ContentManager_TotalBytesUploaded
attr title  "Total of Bytes Uploaded, vector"
attr unit  B
vector 1001  BasicTopology.peer[21].bitTorrentApp.bitTorrentClient.contentManager_26  TotalBytesUploaded:vector  ETV
attr source  ContentManager_TotalBytesUploaded
attr title  "Total of Bytes Uploaded, vector"
attr unit  B
vector 873  BasicTopology.peer[5].bitTorrentApp.bitTorrentClient.contentManager_26  TotalBytesUploaded:vector  ETV
attr source  ContentManager_TotalBytesUploaded
attr title  "Total of Bytes Uploaded, vector"
attr unit  B
vector 887  BasicTopology.peer[7].bitTorrentApp.bitTorrentClient.contentManager_26  PiecesDownloaded:vector  ETV
attr source  ContentManager_PieceDownloaded
attr title  "Pieces Downloaded, vector"
vector 953  BasicTopology.peer[15].bitTorrentApp.bitTorrentClient.contentManager_26  TotalBytesUploaded:vector  ETV
attr source  ContentManager_TotalBytesUploaded
attr title  "Total of Bytes Uploaded, vector"
attr unit  B
vector 969  BasicTopology.peer[17].bitTorrentApp.bitTorrentClient.contentManager_26  TotalBytesUploaded:vector  ETV
attr source  ContentManager_TotalBytesUploaded
attr title  "Total of Bytes Uploaded, vector"
attr unit  B
vector 889  BasicTopology.peer[7].bitTorrentApp.bitTorrentClient.contentManager_26  TotalBytesUploaded:vector  ETV
attr source  ContentManager_TotalBytesUploaded
attr title  "Total of Bytes Uploaded, vector"
attr unit  B
vector 881  BasicTopology.peer[6].bitTorrentApp.bitTorrentClient.contentManager_26  TotalBytesUploaded:vector  ETV
attr source  ContentManager_TotalBytesUploaded
attr title  "Total of Bytes Uploaded, vector"
attr unit  B
vector 985  BasicTopology.peer[19].bitTorrentApp.bitTorrentClient.contentManager_26  TotalBytesUploaded:vector  ETV
attr source  ContentManager_TotalBytesUploaded
attr title  "Total of Bytes Uploaded, vector"
attr unit  B
vector 929  BasicTopology.peer[12].bitTorrentApp.bitTorrentClient.contentManager_26  TotalBytesUploaded:vector  ETV
attr source  ContentManager_TotalBytesUploaded
attr title  "Total of Bytes Uploaded, vector"
attr unit  B
3	103	36001	36001
3	33359835	36053.502109020884	36053.502109021
5	104	36001	36001
5	54711901	36089.311391960269	36089.31139196
7	105	36001	36001
7	57578317	36094.652132753305	36094.652132753
9	106	36001	36001
9	69080024	36117.292200682081	36117.292200682
11	107	36001	36001
11	78992051	36145.372804326804	36145.372804327
13	108	36001	36001
13	76091753	36133.110712340215	36133.11071234
15	109	36001	36001
15	80665768	36155.383861446281	36155.383861446
17	110	36001	36001
17	78379369	36140.267884051226	36140.267884051
19	111	36001	36001
19	75576045	36131.710173210729	36131.710173211
21	112	36001	36001
21	31594689	36051.034335222701	36051.034335223
23	113	36001	36001
23	79387828	36148.560735748043	36148.560735748
25	114	36001	36001
25	82188530	36302.771067617804	36302.771067618
27	115	36001	36001
27	74892250	36130.102803683292	36130.102803683
29	116	36001	36001
29	78747856	36142.201464520592	36142.201464521
31	117	36001	36001
31	74084383	36128.262988166691	36128.262988167
33	118	36001	36001
33	76590126	36134.211252017622	36134.211252018
35	119	36001	36001
35	79826349	36149.834430928542	36149.834430929
37	120	36001	36001
37	79630608	36149.12012538514	36149.120125385
39	121	36001	36001
39	82690335	36305.535219922782	36305.535219923
41	122	36001	36001
41	70518197	36120.373049948118	36120.373049948
43	123	36001	36001
43	79248926	36147.603847107879	36147.603847108
45	124	36001	36001
45	82429815	36303.415738191124	36303.415738191
47	125	36001	36001
47	70981692	36121.389287718765	36121.389287719
49	126	36001	36001
49	80593871	36155.225845290873	36155.225845291
833	113375	36001.080901647519	16384
833	126898	36001.093554556538	32768
833	127154	36001.093901116725	49152
833	128735	36001.095666793895	65536
833	134480	36001.106699412148	81920
833	135915	36001.118940511521	98304
833	136898	36001.120629242026	114688
833	156079	36001.135944786074	131072
833	173435	36001.152303564066	147456
833	183482	36001.163237092196	163840
833	184557	36001.163979845129	180224
833	192943	36001.173818692462	196608
833	199529	36001.18269219572	212992
833	199531	36001.182692354036	229376
833	201463	36001.185132562557	245760
833	202226	36001.186538803414	262144
833	202236	36001.186944662797	278528
833	206304	36001.196515054686	294912
833	208637	36001.206322606854	311296
833	210064	36001.213258399254	327680
833	210443	36001.214687122814	344064
833	212968	36001.224989429672	360448
833	219680	36001.254501556046	376832
833	408014	36002.050875174492	393216
833	408148	36002.051262141844	409600
833	408332	36002.052058207409	425984
833	408867	36002.054953613827	442368
833	408917	36002.055320473373	458752
833	409503	36002.057816943527	475136
833	409581	36002.057984308189	491520
833	412194	36002.066870710399	507904
833	412272	36002.067513202926	524288
833	412274	36002.067850394872	540672
833	428843	36002.303567757068	557056
833	435073	36002.329315315568	573440
833	441667	36002.355999291746	589824
833	448522	36002.38224786702	606208
833	464164	36002.432453502475	622592
833	486428	36002.492819340356	638976
833	490939	36002.501614256877	655360
833	611856	36003.288423825276	671744
833	615298	36003.297892998321	688128
833	615490	36003.298129177325	704512
833	615791	36003.298992886032	720896
833	622340	36003.316758227502	737280
833	624302	36003.321856086368	753664
833	627919	36003.33536784825	770048
833	627922	36003.352883982659	786432
833	627925	36003.357695117331	802816
833	627927	36003.357922844888	819200
833	632190	36003.452540368514	835584
833	642185	36003.491864436009	851968
833	652056	36003.531203050514	868352
833	664888	36003.58395132475	884736
833	665927	36003.587631229743	901120
833	672425	36003.614687958028	917504
833	681094	36003.648141921642	933888
833	691924	36003.690179749249	950272
833	696769	36003.709315994028	966656
833	707512	36003.752951432594	983040
833	715869	36003.790297014012	999424
833	720669	36003.811587576911	1015808
833	729034	36003.845529196285	1032192
833	754906	36003.943502249947	1048576
833	1108149	36004.534909101427	1064960
833	1139533	36004.569838101915	1081344
833	1152508	36004.583505355026	1097728
833	1157798	36004.590160190311	1114112
833	1176076	36004.611530311047	1130496
833	1191894	36004.631486988151	1146880
833	1222816	36004.677568661364	1163264
833	1237538	36004.708054875449	1179648
833	1245574	36004.738011489162	1196032
833	1248343	36004.745157598626	1212416
833	1252934	36004.758149323456	1228800
833	1271089	36004.799966957105	1245184
833	1292827	36004.859150288557	1261568
833	1308619	36004.912106167995	1277952
833	1315914	36004.932959539425	1294336
833	1331009	36004.975216815184	1310720
833	1368593	36005.036720848363	1327104
833	1394089	36005.099311551237	1343488
833	1406452	36005.140675334567	1359872
833	1425264	36005.20544971579	1376256
833	1438615	36005.251988249718	1392640
833	1448971	36005.292694018421	1409024
833	1456970	36005.323957256653	1425408
833	1460141	36005.334368578902	1441792
833	1473550	36005.38858777759	1458176
833	1489690	36005.434239920417	1474560
833	1600390	36005.731763664082	1490944
833	1614769	36005.766737169403	1507328
833	1631016	36005.809161421037	1523712
833	1766548	36006.195984519815	1540096
833	1766930	36006.196765627305	1556480
833	1797624	36006.257656469354	1572864
833	1797776	36006.258169966889	1589248
833	2131361	36006.885750850937	1605632
833	2131482	36006.886060017415	1622016
833	2161522	36006.934635836991	1638400
833	2161653	36006.934917129418	1654784
833	2167326	36006.945048447687	1671168
833	2167545	36006.94545546191	1687552
833	2170701	36006.950232174033	1703936
833	2184350	36006.97100054582	1720320
833	2203081	36007.000724511507	1736704
833	2220166	36007.022091246599	1753088
833	2366025	36007.238096438733	1769472
833	2375177	36007.250422152133	1785856
833	2380420	36007.258012432051	1802240
833	2521662	36007.50590238093	1818624
833	2541949	36007.537842812206	1835008
833	2558245	36007.561138754991	1851392
833	2830017	36008.010449778822	1867776
833	2833910	36008.016512297903	1884160
833	2837769	36008.023324934759	1900544
833	2845984	36008.034445882635	1916928
833	2872952	36008.08927410324	1933312
833	2907733	36008.16420261296	1949696
833	2965193	36008.27539937347	1966080
833	2965375	36008.275702885066	1982464
833	2965377	36008.275728569424	1998848
833	2969330	36008.282069891841	2015232
833	3129856	36008.598661055867	2031616
833	3157156	36008.638516293477	2048000
833	3210481	36008.709729902155	2064384
833	3241234	36008.753421472007	2080768
833	3294135	36008.8238419524	2097152
833	3310107	36008.845868659534	2113536
833	3355037	36008.903805359915	2129920
833	3448016	36009.048856614643	2146304
833	3458772	36009.06291560205	2162688
833	3502987	36009.112660147825	2179072
833	3503085	36009.112819649909	2195456
833	3615413	36009.282165231953	2211840
833	3631047	36009.303865709449	2228224
833	3659800	36009.344967659269	2244608
833	3669582	36009.358333849374	2260992
833	3693963	36009.389599492606	2277376
833	3709438	36009.410900814508	2293760
833	3730705	36009.443563255817	2310144
833	4031686	36009.9198909352	2326528
833	4070413	36009.982808471828	2342912
833	4080341	36009.998348462434	2359296
833	4206906	36010.132821917465	2375680
833	4207607	36010.133971621162	2392064
833	4233799	36010.177662281924	2408448
833	4239635	36010.186881327936	2424832
833	4260414	36010.228217152788	2441216
833	4330145	36010.437908309936	2457600
833	4340486	36010.454276132988	2473984
833	4349124	36010.467785367547	2490368
833	4397239	36010.535001848869	2506752
833	4407707	36010.54737374572	2523136
833	4408384	36010.548453207492	2539520
833	4832845	36011.172420884919	2555904
833	4846205	36011.192336744313	2572288
833	4859589	36011.211799964515	2588672
833	4876846	36011.237502369395	2605056
833	4878396	36011.239515397246	2621440
833	4896596	36011.268458098378	2637824
833	4897011	36011.269125452061	2654208
833	4929092	36011.320303112205	2670592
833	4933011	36011.325873105582	2686976
833	4947445	36011.355356078244	2703360
833	5051179	36011.542577856639	2719744
833	5056042	36011.548486058191	2736128
833	5068984	36011.569197014575	2752512
833	5466675	36012.341117069307	2768896
833	5468084	36012.342765697014	2785280
833	5494656	36012.375120250713	2801664
833	5523823	36012.416118750226	2818048
833	5615529	36012.589404046066	2834432
833	5619988	36012.605051025339	2850816
833	5650704	36012.677321473582	2867200
833	5655890	36012.686122545247	2883584
833	5667835	36012.702666853267	2899968
833	5668081	36012.702941547317	2916352
833	5668468	36012.703310652146	2932736
833	5684175	36012.726618923995	2949120
833	5699949	36012.746693670009	2965504
833	5709796	36012.758876521891	2981888
833	5733474	36012.79389363275	2998272
833	5771342	36012.848061707364	3014656
833	5926132	36013.048041703671	3031040
833	6162266	36013.393691323767	3047424
833	6188101	36013.425318589032	3063808
833	6198202	36013.438052092827	3080192
833	6401802	36013.853063820496	3096576
833	6402705	36013.853999950043	3112960
833	6408074	36013.860949967055	3129344
833	6424906	36013.882154692854	3145728
833	6427374	36013.886064416611	3162112