version 2
run Test-16-20200526-14:54:56-7152
attr configname Test
attr datetime 20200526-14:54:56
attr experiment "\"Simulation Test\""
attr inifile BasicConfig.ini
attr iterationvars ""
attr iterationvars2 $repetition=16
attr measurement "\"Peers: $peers, Rate: $rate\""
attr network BasicTopology
attr processid 7152
attr repetition 16
attr replication #16
attr resultdir results
attr runnumber 16
attr seedset 16

vector 3  BasicTopology.peer[1].bitTorrentApp.bitTorrentClient  DownloadComplete_Test:vector  ETV
attr source  BitTorrentClient_DownloadComplete_Test
attr title  "Descargas completas (prueba), vector"
vector 5  BasicTopology.peer[2].bitTorrentApp.bitTorrentClient  DownloadComplete_Test:vector  ETV
attr source  BitTorrentClient_DownloadComplete_Test
attr title  "Descargas completas (prueba), vector"
vector 7  BasicTopology.peer[3].bitTorrentApp.bitTorrentClient  DownloadComplete_Test:vector  ETV
attr source  BitTorrentClient_DownloadComplete_Test
attr title  "Descargas completas (prueba), vector"
vector 9  BasicTopology.peer[4].bitTorrentApp.bitTorrentClient  DownloadComplete_Test:vector  ETV
attr source  BitTorrentClient_DownloadComplete_Test
attr title  "Descargas completas (prueba), vector"
vector 11  BasicTopology.peer[5].bitTorrentApp.bitTorrentClient  DownloadComplete_Test:vector  ETV
attr source  BitTorrentClient_DownloadComplete_Test
attr title  "Descargas completas (prueba), vector"
vector 13  BasicTopology.peer[6].bitTorrentApp.bitTorrentClient  DownloadComplete_Test:vector  ETV
attr source  BitTorrentClient_DownloadComplete_Test
attr title  "Descargas completas (prueba), vector"
vector 15  BasicTopology.peer[7].bitTorrentApp.bitTorrentClient  DownloadComplete_Test:vector  ETV
attr source  BitTorrentClient_DownloadComplete_Test
attr title  "Descargas completas (prueba), vector"
vector 17  BasicTopology.peer[8].bitTorrentApp.bitTorrentClient  DownloadComplete_Test:vector  ETV
attr source  BitTorrentClient_DownloadComplete_Test
attr title  "Descargas completas (prueba), vector"
vector 19  BasicTopology.peer[9].bitTorrentApp.bitTorrentClient  DownloadComplete_Test:vector  ETV
attr source  BitTorrentClient_DownloadComplete_Test
attr title  "Descargas completas (prueba), vector"
vector 21  BasicTopology.peer[10].bitTorrentApp.bitTorrentClient  DownloadComplete_Test:vector  ETV
attr source  BitTorrentClient_DownloadComplete_Test
attr title  "Descargas completas (prueba), vector"
vector 23  BasicTopology.peer[11].bitTorrentApp.bitTorrentClient  DownloadComplete_Test:vector  ETV
attr source  BitTorrentClient_DownloadComplete_Test
attr title  "Descargas completas (prueba), vector"
vector 25  BasicTopology.peer[12].bitTorrentApp.bitTorrentClient  DownloadComplete_Test:vector  ETV
attr source  BitTorrentClient_DownloadComplete_Test
attr title  "Descargas completas (prueba), vector"
vector 27  BasicTopology.peer[13].bitTorrentApp.bitTorrentClient  DownloadComplete_Test:vector  ETV
attr source  BitTorrentClient_DownloadComplete_Test
attr title  "Descargas completas (prueba), vector"
vector 29  BasicTopology.peer[14].bitTorrentApp.bitTorrentClient  DownloadComplete_Test:vector  ETV
attr source  BitTorrentClient_DownloadComplete_Test
attr title  "Descargas completas (prueba), vector"
vector 31  BasicTopology.peer[15].bitTorrentApp.bitTorrentClient  DownloadComplete_Test:vector  ETV
attr source  BitTorrentClient_DownloadComplete_Test
attr title  "Descargas completas (prueba), vector"
vector 33  BasicTopology.peer[16].bitTorrentApp.bitTorrentClient  DownloadComplete_Test:vector  ETV
attr source  BitTorrentClient_DownloadComplete_Test
attr title  "Descargas completas (prueba), vector"
vector 35  BasicTopology.peer[17].bitTorrentApp.bitTorrentClient  DownloadComplete_Test:vector  ETV
attr source  BitTorrentClient_DownloadComplete_Test
attr title  "Descargas completas (prueba), vector"
vector 37  BasicTopology.peer[18].bitTorrentApp.bitTorrentClient  DownloadComplete_Test:vector  ETV
attr source  BitTorrentClient_DownloadComplete_Test
attr title  "Descargas completas (prueba), vector"
vector 39  BasicTopology.peer[19].bitTorrentApp.bitTorrentClient  DownloadComplete_Test:vector  ETV
attr source  BitTorrentClient_DownloadComplete_Test
attr title  "Descargas completas (prueba), vector"
vector 41  BasicTopology.peer[20].bitTorrentApp.bitTorrentClient  DownloadComplete_Test:vector  ETV
attr source  BitTorrentClient_DownloadComplete_Test
attr title  "Descargas completas (prueba), vector"
vector 43  BasicTopology.peer[21].bitTorrentApp.bitTorrentClient  DownloadComplete_Test:vector  ETV
attr source  BitTorrentClient_DownloadComplete_Test
attr title  "Descargas completas (prueba), vector"
vector 45  BasicTopology.peer[22].bitTorrentApp.bitTorrentClient  DownloadComplete_Test:vector  ETV
attr source  BitTorrentClient_DownloadComplete_Test
attr title  "Descargas completas (prueba), vector"
vector 47  BasicTopology.peer[23].bitTorrentApp.bitTorrentClient  DownloadComplete_Test:vector  ETV
attr source  BitTorrentClient_DownloadComplete_Test
attr title  "Descargas completas (prueba), vector"
vector 49  BasicTopology.peer[24].bitTorrentApp.bitTorrentClient  DownloadComplete_Test:vector  ETV
attr source  BitTorrentClient_DownloadComplete_Test
attr title  "Descargas completas (prueba), vector"
vector 833  BasicTopology.peer[0].bitTorrentApp.bitTorrentClient.contentManager_26  TotalBytesUploaded:vector  ETV
attr source  ContentManager_TotalBytesUploaded
attr title  "Total of Bytes Uploaded, vector"
attr unit  B
vector 1000  BasicTopology.peer[21].bitTorrentApp.bitTorrentClient.contentManager_26  TotalBytesDownloaded:vector  ETV
attr source  ContentManager_TotalBytesDownloaded
attr title  "Total of Bytes Downloaded, vector"
attr unit  B
vector 1024  BasicTopology.peer[24].bitTorrentApp.bitTorrentClient.contentManager_26  TotalBytesDownloaded:vector  ETV
attr source  ContentManager_TotalBytesDownloaded
attr title  "Total of Bytes Downloaded, vector"
attr unit  B
vector 999  BasicTopology.peer[21].bitTorrentApp.bitTorrentClient.contentManager_26  PiecesDownloaded:vector  ETV
attr source  ContentManager_PieceDownloaded
attr title  "Pieces Downloaded, vector"
vector 1001  BasicTopology.peer[21].bitTorrentApp.bitTorrentClient.contentManager_26  TotalBytesUploaded:vector  ETV
attr source  ContentManager_TotalBytesUploaded
attr title  "Total of Bytes Uploaded, vector"
attr unit  B
vector 912  BasicTopology.peer[10].bitTorrentApp.bitTorrentClient.contentManager_26  TotalBytesDownloaded:vector  ETV
attr source  ContentManager_TotalBytesDownloaded
attr title  "Total of Bytes Downloaded, vector"
attr unit  B
vector 928  BasicTopology.peer[12].bitTorrentApp.bitTorrentClient.contentManager_26  TotalBytesDownloaded:vector  ETV
attr source  ContentManager_TotalBytesDownloaded
attr title  "Total of Bytes Downloaded, vector"
attr unit  B
vector 968  BasicTopology.peer[17].bitTorrentApp.bitTorrentClient.contentManager_26  TotalBytesDownloaded:vector  ETV
attr source  ContentManager_TotalBytesDownloaded
attr title  "Total of Bytes Downloaded, vector"
attr unit  B
vector 944  BasicTopology.peer[14].bitTorrentApp.bitTorrentClient.contentManager_26  TotalBytesDownloaded:vector  ETV
attr source  ContentManager_TotalBytesDownloaded
attr title  "Total of Bytes Downloaded, vector"
attr unit  B
vector 911  BasicTopology.peer[10].bitTorrentApp.bitTorrentClient.contentManager_26  PiecesDownloaded:vector  ETV
attr source  ContentManager_PieceDownloaded
attr title  "Pieces Downloaded, vector"
vector 1023  BasicTopology.peer[24].bitTorrentApp.bitTorrentClient.contentManager_26  PiecesDownloaded:vector  ETV
attr source  ContentManager_PieceDownloaded
attr title  "Pieces Downloaded, vector"
vector 1025  BasicTopology.peer[24].bitTorrentApp.bitTorrentClient.contentManager_26  TotalBytesUploaded:vector  ETV
attr source  ContentManager_TotalBytesUploaded
attr title  "Total of Bytes Uploaded, vector"
attr unit  B
vector 913  BasicTopology.peer[10].bitTorrentApp.bitTorrentClient.contentManager_26  TotalBytesUploaded:vector  ETV
attr source  ContentManager_TotalBytesUploaded
attr title  "Total of Bytes Uploaded, vector"
attr unit  B
vector 840  BasicTopology.peer[1].bitTorrentApp.bitTorrentClient.contentManager_26  TotalBytesDownloaded:vector  ETV
attr source  ContentManager_TotalBytesDownloaded
attr title  "Total of Bytes Downloaded, vector"
attr unit  B
vector 839  BasicTopology.peer[1].bitTorrentApp.bitTorrentClient.contentManager_26  PiecesDownloaded:vector  ETV
attr source  ContentManager_PieceDownloaded
attr title  "Pieces Downloaded, vector"
vector 841  BasicTopology.peer[1].bitTorrentApp.bitTorrentClient.contentManager_26  TotalBytesUploaded:vector  ETV
attr source  ContentManager_TotalBytesUploaded
attr title  "Total of Bytes Uploaded, vector"
attr unit  B
vector 936  BasicTopology.peer[13].bitTorrentApp.bitTorrentClient.contentManager_26  TotalBytesDownloaded:vector  ETV
attr source  ContentManager_TotalBytesDownloaded
attr title  "Total of Bytes Downloaded, vector"
attr unit  B
vector 943  BasicTopology.peer[14].bitTorrentApp.bitTorrentClient.contentManager_26  PiecesDownloaded:vector  ETV
attr source  ContentManager_PieceDownloaded
attr title  "Pieces Downloaded, vector"
vector 896  BasicTopology.peer[8].bitTorrentApp.bitTorrentClient.contentManager_26  TotalBytesDownloaded:vector  ETV
attr source  ContentManager_TotalBytesDownloaded
attr title  "Total of Bytes Downloaded, vector"
attr unit  B
vector 945  BasicTopology.peer[14].bitTorrentApp.bitTorrentClient.contentManager_26  TotalBytesUploaded:vector  ETV
attr source  ContentManager_TotalBytesUploaded
attr title  "Total of Bytes Uploaded, vector"
attr unit  B
vector 952  BasicTopology.peer[15].bitTorrentApp.bitTorrentClient.contentManager_26  TotalBytesDownloaded:vector  ETV
attr source  ContentManager_TotalBytesDownloaded
attr title  "Total of Bytes Downloaded, vector"
attr unit  B
vector 927  BasicTopology.peer[12].bitTorrentApp.bitTorrentClient.contentManager_26  PiecesDownloaded:vector  ETV
attr source  ContentManager_PieceDownloaded
attr title  "Pieces Downloaded, vector"
vector 929  BasicTopology.peer[12].bitTorrentApp.bitTorrentClient.contentManager_26  TotalBytesUploaded:vector  ETV
attr source  ContentManager_TotalBytesUploaded
attr title  "Total of Bytes Uploaded, vector"
attr unit  B
vector 888  BasicTopology.peer[7].bitTorrentApp.bitTorrentClient.contentManager_26  TotalBytesDownloaded:vector  ETV
attr source  ContentManager_TotalBytesDownloaded
attr title  "Total of Bytes Downloaded, vector"
attr unit  B
vector 951  BasicTopology.peer[15].bitTorrentApp.bitTorrentClient.contentManager_26  PiecesDownloaded:vector  ETV
attr source  ContentManager_PieceDownloaded
attr title  "Pieces Downloaded, vector"
vector 953  BasicTopology.peer[15].bitTorrentApp.bitTorrentClient.contentManager_26  TotalBytesUploaded:vector  ETV
attr source  ContentManager_TotalBytesUploaded
attr title  "Total of Bytes Uploaded, vector"
attr unit  B
vector 920  BasicTopology.peer[11].bitTorrentApp.bitTorrentClient.contentManager_26  TotalBytesDownloaded:vector  ETV
attr source  ContentManager_TotalBytesDownloaded
attr title  "Total of Bytes Downloaded, vector"
attr unit  B
vector 872  BasicTopology.peer[5].bitTorrentApp.bitTorrentClient.contentManager_26  TotalBytesDownloaded:vector  ETV
attr source  ContentManager_TotalBytesDownloaded
attr title  "Total of Bytes Downloaded, vector"
attr unit  B
vector 919  BasicTopology.peer[11].bitTorrentApp.bitTorrentClient.contentManager_26  PiecesDownloaded:vector  ETV
attr source  ContentManager_PieceDownloaded
attr title  "Pieces Downloaded, vector"
vector 921  BasicTopology.peer[11].bitTorrentApp.bitTorrentClient.contentManager_26  TotalBytesUploaded:vector  ETV
attr source  ContentManager_TotalBytesUploaded
attr title  "Total of Bytes Uploaded, vector"
attr unit  B
vector 904  BasicTopology.peer[9].bitTorrentApp.bitTorrentClient.contentManager_26  TotalBytesDownloaded:vector  ETV
attr source  ContentManager_TotalBytesDownloaded
attr title  "Total of Bytes Downloaded, vector"
attr unit  B
vector 960  BasicTopology.peer[16].bitTorrentApp.bitTorrentClient.contentManager_26  TotalBytesDownloaded:vector  ETV
attr source  ContentManager_TotalBytesDownloaded
attr title  "Total of Bytes Downloaded, vector"
attr unit  B
vector 864  BasicTopology.peer[4].bitTorrentApp.bitTorrentClient.contentManager_26  TotalBytesDownloaded:vector  ETV
attr source  ContentManager_TotalBytesDownloaded
attr title  "Total of Bytes Downloaded, vector"
attr unit  B
vector 848  BasicTopology.peer[2].bitTorrentApp.bitTorrentClient.contentManager_26  TotalBytesDownloaded:vector  ETV
attr source  ContentManager_TotalBytesDownloaded
attr title  "Total of Bytes Downloaded, vector"
attr unit  B
vector 903  BasicTopology.peer[9].bitTorrentApp.bitTorrentClient.contentManager_26  PiecesDownloaded:vector  ETV
attr source  ContentManager_PieceDownloaded
attr title  "Pieces Downloaded, vector"
vector 905  BasicTopology.peer[9].bitTorrentApp.bitTorrentClient.contentManager_26  TotalBytesUploaded:vector  ETV
attr source  ContentManager_TotalBytesUploaded
attr title  "Total of Bytes Uploaded, vector"
attr unit  B
vector 880  BasicTopology.peer[6].bitTorrentApp.bitTorrentClient.contentManager_26  TotalBytesDownloaded:vector  ETV
attr source  ContentManager_TotalBytesDownloaded
attr title  "Total of Bytes Downloaded, vector"
attr unit  B
vector 959  BasicTopology.peer[16].bitTorrentApp.bitTorrentClient.contentManager_26  PiecesDownloaded:vector  ETV
attr source  ContentManager_PieceDownloaded
attr title  "Pieces Downloaded, vector"
vector 961  BasicTopology.peer[16].bitTorrentApp.bitTorrentClient.contentManager_26  TotalBytesUploaded:vector  ETV
attr source  ContentManager_TotalBytesUploaded
attr title  "Total of Bytes Uploaded, vector"
attr unit  B
vector 847  BasicTopology.peer[2].bitTorrentApp.bitTorrentClient.contentManager_26  PiecesDownloaded:vector  ETV
attr source  ContentManager_PieceDownloaded
attr title  "Pieces Downloaded, vector"
vector 1008  BasicTopology.peer[22].bitTorrentApp.bitTorrentClient.contentManager_26  TotalBytesDownloaded:vector  ETV
attr source  ContentManager_TotalBytesDownloaded
attr title  "Total of Bytes Downloaded, vector"
attr unit  B
vector 856  BasicTopology.peer[3].bitTorrentApp.bitTorrentClient.contentManager_26  TotalBytesDownloaded:vector  ETV
attr source  ContentManager_TotalBytesDownloaded
attr title  "Total of Bytes Downloaded, vector"
attr unit  B
vector 1007  BasicTopology.peer[22].bitTorrentApp.bitTorrentClient.contentManager_26  PiecesDownloaded:vector  ETV
attr source  ContentManager_PieceDownloaded
attr title  "Pieces Downloaded, vector"
vector 879  BasicTopology.peer[6].bitTorrentApp.bitTorrentClient.contentManager_26  PiecesDownloaded:vector  ETV
attr source  ContentManager_PieceDownloaded
attr title  "Pieces Downloaded, vector"
vector 871  BasicTopology.peer[5].bitTorrentApp.bitTorrentClient.contentManager_26  PiecesDownloaded:vector  ETV
attr source  ContentManager_PieceDownloaded
attr title  "Pieces Downloaded, vector"
vector 873  BasicTopology.peer[5].bitTorrentApp.bitTorrentClient.contentManager_26  TotalBytesUploaded:vector  ETV
attr source  ContentManager_TotalBytesUploaded
attr title  "Total of Bytes Uploaded, vector"
attr unit  B
vector 895  BasicTopology.peer[8].bitTorrentApp.bitTorrentClient.contentManager_26  PiecesDownloaded:vector  ETV
attr source  ContentManager_PieceDownloaded
attr title  "Pieces Downloaded, vector"
vector 855  BasicTopology.peer[3].bitTorrentApp.bitTorrentClient.contentManager_26  PiecesDownloaded:vector  ETV
attr source  ContentManager_PieceDownloaded
attr title  "Pieces Downloaded, vector"
vector 857  BasicTopology.peer[3].bitTorrentApp.bitTorrentClient.contentManager_26  TotalBytesUploaded:vector  ETV
attr source  ContentManager_TotalBytesUploaded
attr title  "Total of Bytes Uploaded, vector"
attr unit  B
vector 1016  BasicTopology.peer[23].bitTorrentApp.bitTorrentClient.contentManager_26  TotalBytesDownloaded:vector  ETV
attr source  ContentManager_TotalBytesDownloaded
attr title  "Total of Bytes Downloaded, vector"
attr unit  B
vector 1015  BasicTopology.peer[23].bitTorrentApp.bitTorrentClient.contentManager_26  PiecesDownloaded:vector  ETV
attr source  ContentManager_PieceDownloaded
attr title  "Pieces Downloaded, vector"
vector 1017  BasicTopology.peer[23].bitTorrentApp.bitTorrentClient.contentManager_26  TotalBytesUploaded:vector  ETV
attr source  ContentManager_TotalBytesUploaded
attr title  "Total of Bytes Uploaded, vector"
attr unit  B
vector 976  BasicTopology.peer[18].bitTorrentApp.bitTorrentClient.contentManager_26  TotalBytesDownloaded:vector  ETV
attr source  ContentManager_TotalBytesDownloaded
attr title  "Total of Bytes Downloaded, vector"
attr unit  B
vector 849  BasicTopology.peer[2].bitTorrentApp.bitTorrentClient.contentManager_26  TotalBytesUploaded:vector  ETV
attr source  ContentManager_TotalBytesUploaded
attr title  "Total of Bytes Uploaded, vector"
attr unit  B
vector 984  BasicTopology.peer[19].bitTorrentApp.bitTorrentClient.contentManager_26  TotalBytesDownloaded:vector  ETV
attr source  ContentManager_TotalBytesDownloaded
attr title  "Total of Bytes Downloaded, vector"
attr unit  B
vector 863  BasicTopology.peer[4].bitTorrentApp.bitTorrentClient.contentManager_26  PiecesDownloaded:vector  ETV
attr source  ContentManager_PieceDownloaded
attr title  "Pieces Downloaded, vector"
vector 967  BasicTopology.peer[17].bitTorrentApp.bitTorrentClient.contentManager_26  PiecesDownloaded:vector  ETV
attr source  ContentManager_PieceDownloaded
attr title  "Pieces Downloaded, vector"
vector 881  BasicTopology.peer[6].bitTorrentApp.bitTorrentClient.contentManager_26  TotalBytesUploaded:vector  ETV
attr source  ContentManager_TotalBytesUploaded
attr title  "Total of Bytes Uploaded, vector"
attr unit  B
vector 897  BasicTopology.peer[8].bitTorrentApp.bitTorrentClient.contentManager_26  TotalBytesUploaded:vector  ETV
attr source  ContentManager_TotalBytesUploaded
attr title  "Total of Bytes Uploaded, vector"
attr unit  B
vector 975  BasicTopology.peer[18].bitTorrentApp.bitTorrentClient.contentManager_26  PiecesDownloaded:vector  ETV
attr source  ContentManager_PieceDownloaded
attr title  "Pieces Downloaded, vector"
vector 887  BasicTopology.peer[7].bitTorrentApp.bitTorrentClient.contentManager_26  PiecesDownloaded:vector  ETV
attr source  ContentManager_PieceDownloaded
attr title  "Pieces Downloaded, vector"
vector 865  BasicTopology.peer[4].bitTorrentApp.bitTorrentClient.contentManager_26  TotalBytesUploaded:vector  ETV
attr source  ContentManager_TotalBytesUploaded
attr title  "Total of Bytes Uploaded, vector"
attr unit  B
vector 935  BasicTopology.peer[13].bitTorrentApp.bitTorrentClient.contentManager_26  PiecesDownloaded:vector  ETV
attr source  ContentManager_PieceDownloaded
attr title  "Pieces Downloaded, vector"
vector 983  BasicTopology.peer[19].bitTorrentApp.bitTorrentClient.contentManager_26  PiecesDownloaded:vector  ETV
attr source  ContentManager_PieceDownloaded
attr title  "Pieces Downloaded, vector"
vector 992  BasicTopology.peer[20].bitTorrentApp.bitTorrentClient.contentManager_26  TotalBytesDownloaded:vector  ETV
attr source  ContentManager_TotalBytesDownloaded
attr title  "Total of Bytes Downloaded, vector"
attr unit  B
vector 1009  BasicTopology.peer[22].bitTorrentApp.bitTorrentClient.contentManager_26  TotalBytesUploaded:vector  ETV
attr source  ContentManager_TotalBytesUploaded
attr title  "Total of Bytes Uploaded, vector"
attr unit  B
vector 889  BasicTopology.peer[7].bitTorrentApp.bitTorrentClient.contentManager_26  TotalBytesUploaded:vector  ETV
attr source  ContentManager_TotalBytesUploaded
attr title  "Total of Bytes Uploaded, vector"
attr unit  B
vector 937  BasicTopology.peer[13].bitTorrentApp.bitTorrentClient.contentManager_26  TotalBytesUploaded:vector  ETV
attr source  ContentManager_TotalBytesUploaded
attr title  "Total of Bytes Uploaded, vector"
attr unit  B
vector 969  BasicTopology.peer[17].bitTorrentApp.bitTorrentClient.contentManager_26  TotalBytesUploaded:vector  ETV
attr source  ContentManager_TotalBytesUploaded
attr title  "Total of Bytes Uploaded, vector"
attr unit  B
vector 991  BasicTopology.peer[20].bitTorrentApp.bitTorrentClient.contentManager_26  PiecesDownloaded:vector  ETV
attr source  ContentManager_PieceDownloaded
attr title  "Pieces Downloaded, vector"
vector 993  BasicTopology.peer[20].bitTorrentApp.bitTorrentClient.contentManager_26  TotalBytesUploaded:vector  ETV
attr source  ContentManager_TotalBytesUploaded
attr title  "Total of Bytes Uploaded, vector"
attr unit  B
vector 977  BasicTopology.peer[18].bitTorrentApp.bitTorrentClient.contentManager_26  TotalBytesUploaded:vector  ETV
attr source  ContentManager_TotalBytesUploaded
attr title  "Total of Bytes Uploaded, vector"
attr unit  B
vector 985  BasicTopology.peer[19].bitTorrentApp.bitTorrentClient.contentManager_26  TotalBytesUploaded:vector  ETV
attr source  ContentManager_TotalBytesUploaded
attr title  "Total of Bytes Uploaded, vector"
attr unit  B
3	103	36001	36001
3	48808760	36081.202218324566	36081.202218325
5	104	36001	36001
5	60634650	36102.183282769861	36102.18328277
7	105	36001	36001
7	61199931	36103.409004382838	36103.409004383
9	106	36001	36001
9	63583657	36108.254057077947	36108.254057078
11	107	36001	36001
11	79423122	36303.104655742778	36303.104655743
13	108	36001	36001
13	77603420	36159.073045636311	36159.073045636
15	109	36001	36001
15	79225696	36302.362825367843	36302.362825368
17	110	36001	36001
17	75157067	36134.671194383753	36134.671194384
19	111	36001	36001
19	72858190	36127.863203796722	36127.863203797
21	112	36001	36001
21	38182726	36064.81913196526	36064.819131965
23	113	36001	36001
23	78790438	36165.165865336443	36165.165865336
25	114	36001	36001
25	70490868	36123.018609320365	36123.01860932
27	115	36001	36001
27	66911233	36115.226137839646	36115.22613784
29	116	36001	36001
29	74187601	36131.136142621792	36131.136142622
31	117	36001	36001
31	65281579	36111.760333543868	36111.760333544
33	118	36001	36001
33	73555510	36129.76967578486	36129.769675785
35	119	36001	36001
35	69984672	36121.226060768357	36121.226060768
37	120	36001	36001
37	74291360	36131.877073711288	36131.877073711
39	121	36001	36001
39	77211662	36155.566113788878	36155.566113789
41	122	36001	36001
41	76324059	36136.978612941034	36136.978612941
43	123	36001	36001
43	36371844	36061.869455868629	36061.869455869
45	124	36001	36001
45	39808308	36067.218951252881	36067.218951253
47	125	36001	36001
47	51193216	36085.042251596331	36085.042251596
49	126	36001	36001
49	55512060	36092.346957964621	36092.346957965
833	119162	36001.125895603811	16384
833	143168	36001.159535743357	32768
833	143760	36001.16020399649	49152
833	149181	36001.174101914063	65536
833	149216	36001.174129641529	81920
833	155724	36001.19366395103	98304
833	156671	36001.197499831351	114688
833	158737	36001.206701611705	131072
833	158739	36001.217104115369	147456
833	158766	36001.22611734329	163840
833	158768	36001.231241353798	180224
833	158795	36001.248806445679	196608
833	158821	36001.250391024936	212992
833	158823	36001.25048520154	229376
833	158825	36001.252608891888	245760
833	158828	36001.258071715917	262144
833	158830	36001.260534173437	278528
833	158832	36001.26226962808	294912
833	158858	36001.267366114015	311296
833	158861	36001.269120910133	327680
833	355761	36002.206725701747	344064
833	373128	36002.231233531816	360448
833	382548	36002.265803382405	376832
833	392489	36002.300417575143	393216
833	498149	36002.617497431782	409600
833	513094	36002.655308992068	425984
833	528612	36002.677484956668	442368
833	528819	36002.677804315057	458752
833	532086	36002.683112258071	475136
833	534532	36002.689173934639	491520
833	535791	36002.692429339507	507904
833	539454	36002.703564395225	524288
833	539485	36002.703694783631	540672
833	539880	36002.705302752126	557056
833	546565	36002.723393574209	573440
833	547324	36002.725753888204	589824
833	547844	36002.727107077677	606208
833	551714	36002.737570790057	622592
833	552017	36002.738280212853	638976
833	558396	36002.755021198533	655360
833	559457	36002.758455795306	671744
833	563593	36002.771839276344	688128
833	569245	36002.788810084829	704512
833	576188	36002.809522101467	720896
833	576308	36002.809961628532	737280
833	588132	36002.839840661413	753664
833	593544	36002.853165657755	770048
833	593635	36002.853391927636	786432
833	607549	36002.892435977967	802816
833	624913	36002.941969836183	819200
833	646414	36003.002292664249	835584
833	725565	36003.338542197249	851968
833	729740	36003.353851457238	868352
833	737187	36003.386504567703	884736
833	763795	36003.454023724645	901120
833	770035	36003.468621271987	917504
833	812558	36003.584581485834	933888
833	828325	36003.626343197164	950272
833	832013	36003.637012248443	966656
833	985240	36004.288297261565	983040
833	1002216	36004.335711565358	999424
833	1008749	36004.355312963453	1015808
833	1105940	36004.590598344289	1032192
833	1134578	36004.628781168759	1048576
833	1168670	36004.670853948047	1064960
833	1180418	36004.692663959611	1081344
833	1254207	36005.023067694439	1097728
833	1530674	36005.737818622004	1114112
833	1538782	36005.767180343735	1130496
833	1557930	36005.819845284592	1146880
833	1562514	36005.836575567878	1163264
833	1569693	36005.862066668092	1179648
833	1587244	36005.916237501954	1196032
833	1589110	36005.923945638653	1212416
833	1599000	36005.966730242776	1228800
833	1677864	36006.149390095959	1245184
833	1891574	36006.728257367203	1261568
833	1929517	36006.789039707804	1277952
833	1962017	36006.837695129848	1294336
833	2002183	36006.892361476485	1310720
833	2037636	36007.005076260013	1327104
833	2049481	36007.02398110479	1343488
833	2192240	36007.393899808935	1359872
833	2197345	36007.407041880524	1376256
833	2208070	36007.436251932618	1392640
833	2220805	36007.474711865645	1409024
833	2257653	36007.541910099948	1425408
833	2598443	36008.080173127019	1441792
833	2600761	36008.088635428635	1458176
833	2602185	36008.092773820629	1474560
833	2603488	36008.096369005034	1490944
833	2609253	36008.109050576416	1507328
833	2609426	36008.109484131848	1523712
833	2628153	36008.143324745978	1540096
833	2635941	36008.157834403283	1556480
833	2645089	36008.171916628036	1572864
833	2701802	36008.260854793186	1589248
833	2766901	36008.35120653845	1605632
833	2864549	36008.488213008518	1622016
833	2961095	36008.601095598008	1638400
833	3000877	36008.653383532755	1654784
833	3039031	36008.706535400801	1671168
833	3463274	36009.41996894618	1687552
833	3511245	36009.52515697417	1703936
833	3528380	36009.55033473807	1720320
833	3571940	36009.611011207739	1736704
833	3582022	36009.626692388261	1753088
833	3657552	36009.766450330328	1769472
833	3746989	36009.899649563385	1785856
833	3777077	36009.940853176643	1802240
833	4315479	36010.686202127545	1818624
833	4348759	36010.733034345169	1835008
833	4378408	36010.775039933737	1851392
833	4414360	36010.828381252016	1867776
833	4428408	36010.850854261999	1884160
833	4446225	36010.880237007163	1900544
833	4468406	36010.916716940792	1916928
833	4483542	36010.940785788181	1933312
833	4527494	36011.019450917345	1949696
833	4542991	36011.044839221618	1966080
833	4563684	36011.071770555019	1982464
833	4585525	36011.102441462203	1998848
833	4608728	36011.145459188069	2015232
833	4644201	36011.216701083807	2031616
833	4666282	36011.255309678304	2048000
833	4682384	36011.282208127206	2064384
833	4711741	36011.338262817755	2080768
833	4741824	36011.383994837348	2097152
833	4765836	36011.428850563863	2113536
833	4793621	36011.481627778025	2129920
833	4802487	36011.493490153524	2146304
833	4833640	36011.534443445215	2162688
833	4865463	36011.578643430924	2179072
833	4893243	36011.609608789002	2195456
833	5116283	36011.970500304819	2211840
833	5173119	36012.052370753836	2228224
833	5480300	36012.660413928136	2244608
833	5750409	36013.068376129672	2260992
833	5800371	36013.12414988955	2277376
833	5863286	36013.20815226221	2293760
833	5874742	36013.225507453869	2310144
833	5875709	36013.226658906964	2326528
833	5902382	36013.270353947529	2342912
833	5918564	36013.298276332515	2359296
833	5937382	36013.328651284014	2375680
833	5966569	36013.377246945943	2392064
833	5988728	36013.414284203945	2408448
833	5994253	36013.423170199131	2424832
833	6045136	36013.49561368638	2441216
833	6053332	36013.506370446801	2457600
833	6758821	36014.602805112379	2473984
833	6771839	36014.623411781559	2490368
833	6788800	36014.656332741997	2506752
833	6814143	36014.702626919326	2523136
833	6817008	36014.707283756426	2539520
833	8606167	36017.791882042517	2555904
833	8620516	36017.811715131843	2572288
833	8663143	36017.864810745661	2588672
833	9201653	36018.766933753185	2605056
833	9260056	36018.885073744799	2621440
833	9261367	36018.887136202758	2637824
833	9262913	36018.889435398189	2654208
833	9271508	36018.901965515113	2670592
833	9284899	36018.920718700029	2686976
833	9285226	36018.921297067894	2703360
833	9285546	36018.9217313005	2719744
833	9290889	36018.929493471225	2736128
833	9312427	36018.960412662813	2752512
833	9347708	36019.016388928795	2768896
833	9361560	36019.036214480323	2785280
833	9966707	36020.085796530486	2801664
833	9994875	36020.132493030538	2818048
833	10017704	36020.16851246333	2834432
833	10035574	36020.197986844827	2850816
833	10480367	36021.088409787159	2867200
833	10480881	36021.089279582984	2883584
833	10490920	36021.104538981633	2899968
833	10496542	36021.115575781082	2916352
833	10500637	36021.12219180484	2932736
833	10501545	36021.124608033903	2949120
833	10502814	36021.126310555689	2965504
833	10503404	36021.126956754428	2981888
833	10517633	36021.148985598747	2998272
833	10519513	36021.152424112071	3014656
833	10525468	36021.161615101924	3031040
833	11168784	36022.397029621613	3047424
833	11250949	36022.518862607232	3063808
833	11280895	36022.568547498786	3080192
833	11314792	36022.618382810933	3096576
833	11748993	36023.236738486596	3112960
833	11756728	36023.246290635844	3129344
833	11768823	36023.260546971382	3145728