file 428677 1593887686                                          
version 2
run Test-8-20200526-14:53:03-7068
attr configname Test
attr datetime 20200526-14:53:03
attr experiment "\"Simulation Test\""
attr inifile BasicConfig.ini
attr iterationvars ""
attr iterationvars2 $repetition=8
attr measurement "\"Peers: $peers, Rate: $rate\""
attr network BasicTopology
attr processid 7068
attr repetition 8
attr replication #8
attr resultdir results
attr runnumber 8
attr seedset 8
vector 3  BasicTopology.peer[1].bitTorrentApp.bitTorrentClient  DownloadComplete_Test:vector  ETV
attr source BitTorrentClient_DownloadComplete_Test
attr title "Descargas completas (prueba), vector"
3	21027 64 103 33359835 36001 36053.502109020884 2 36001 36053.502109021 72054.502109021 2595927015.3252
vector 5  BasicTopology.peer[2].bitTorrentApp.bitTorrentClient  DownloadComplete_Test:vector  ETV
attr source BitTorrentClient_DownloadComplete_Test
attr title "Descargas completas (prueba), vector"
5	21091 63 104 54711901 36001 36089.311391960269 2 36001 36089.31139196 72090.31139196 2598510397.7459
vector 7  BasicTopology.peer[3].bitTorrentApp.bitTorrentClient  DownloadComplete_Test:vector  ETV
attr source BitTorrentClient_DownloadComplete_Test
attr title "Descargas completas (prueba), vector"
7	21154 64 105 57578317 36001 36094.652132753305 2 36001 36094.652132753 72095.652132753 2598895913.5845
vector 9  BasicTopology.peer[4].bitTorrentApp.bitTorrentClient  DownloadComplete_Test:vector  ETV
attr source BitTorrentClient_DownloadComplete_Test
attr title "Descargas completas (prueba), vector"
9	21218 64 106 69080024 36001 36117.292200682081 2 36001 36117.292200682 72118.292200682 2600530796.9094
vector 11  BasicTopology.peer[5].bitTorrentApp.bitTorrentClient  DownloadComplete_Test:vector  ETV
attr source BitTorrentClient_DownloadComplete_Test
attr title "Descargas completas (prueba), vector"
11	21282 66 107 78992051 36001 36145.372804326804 2 36001 36145.372804327 72146.372804327 2602559976.1638
vector 13  BasicTopology.peer[6].bitTorrentApp.bitTorrentClient  DownloadComplete_Test:vector  ETV
attr source BitTorrentClient_DownloadComplete_Test
attr title "Descargas completas (prueba), vector"
13	21348 65 108 76091753 36001 36133.110712340215 2 36001 36133.11071234 72134.11071234 2601673690.7502
vector 15  BasicTopology.peer[7].bitTorrentApp.bitTorrentClient  DownloadComplete_Test:vector  ETV
attr source BitTorrentClient_DownloadComplete_Test
attr title "Descargas completas (prueba), vector"
15	21413 66 109 80665768 36001 36155.383861446281 2 36001 36155.383861446 72156.383861446 2603283783.1685
vector 17  BasicTopology.peer[8].bitTorrentApp.bitTorrentClient  DownloadComplete_Test:vector  ETV
attr source BitTorrentClient_DownloadComplete_Test
attr title "Descargas completas (prueba), vector"
17	21479 66 110 78379369 36001 36140.267884051226 2 36001 36140.267884051 72141.267884051 2602190963.731
vector 19  BasicTopology.peer[9].bitTorrentApp.bitTorrentClient  DownloadComplete_Test:vector  ETV
attr source BitTorrentClient_DownloadComplete_Test
attr title "Descargas completas (prueba), vector"
19	21545 66 111 75576045 36001 36131.710173210729 2 36001 36131.710173211 72132.710173211 2601572481.0409
vector 21  BasicTopology.peer[10].bitTorrentApp.bitTorrentClient  DownloadComplete_Test:vector  ETV
attr source BitTorrentClient_DownloadComplete_Test
attr title "Descargas completas (prueba), vector"
21	21611 66 112 31594689 36001 36051.034335222701 2 36001 36051.034335223 72052.034335223 2595749077.6394
vector 23  BasicTopology.peer[11].bitTorrentApp.bitTorrentClient  DownloadComplete_Test:vector  ETV
attr source BitTorrentClient_DownloadComplete_Test
attr title "Descargas completas (prueba), vector"
23	21677 66 113 79387828 36001 36148.560735748043 2 36001 36148.560735748 72149.560735748 2602790444.2661
vector 25  BasicTopology.peer[12].bitTorrentApp.bitTorrentClient  DownloadComplete_Test:vector  ETV
attr source BitTorrentClient_DownloadComplete_Test
attr title "Descargas completas (prueba), vector"
25	21743 66 114 82188530 36001 36302.771067617804 2 36001 36302.771067618 72303.771067618 2613963188.1879
vector 27  BasicTopology.peer[13].bitTorrentApp.bitTorrentClient  DownloadComplete_Test:vector  ETV
attr source BitTorrentClient_DownloadComplete_Test
attr title "Descargas completas (prueba), vector"
27	21809 66 115 74892250 36001 36130.102803683292 2 36001 36130.102803683 72131.102803683 2601456329.6047
vector 29  BasicTopology.peer[14].bitTorrentApp.bitTorrentClient  DownloadComplete_Test:vector  ETV
attr source BitTorrentClient_DownloadComplete_Test
attr title "Descargas completas (prueba), vector"
29	21875 66 116 78747856 36001 36142.201464520592 2 36001 36142.201464521 72143.201464521 2602330727.702
vector 31  BasicTopology.peer[15].bitTorrentApp.bitTorrentClient  DownloadComplete_Test:vector  ETV
attr source BitTorrentClient_DownloadComplete_Test
attr title "Descargas completas (prueba), vector"
31	21941 66 117 74084383 36001 36128.262988166691 2 36001 36128.262988167 72129.262988167 2601323387.5422
vector 33  BasicTopology.peer[16].bitTorrentApp.bitTorrentClient  DownloadComplete_Test:vector  ETV
attr source BitTorrentClient_DownloadComplete_Test
attr title "Descargas completas (prueba), vector"
33	22007 66 118 76590126 36001 36134.211252017622 2 36001 36134.211252018 72135.211252018 2601753223.8055
vector 35  BasicTopology.peer[17].bitTorrentApp.bitTorrentClient  DownloadComplete_Test:vector  ETV
attr source BitTorrentClient_DownloadComplete_Test
attr title "Descargas completas (prueba), vector"
35	22073 66 119 79826349 36001 36149.834430928542 2 36001 36149.834430929 72150.834430929 2602882530.3836
vector 37  BasicTopology.peer[18].bitTorrentApp.bitTorrentClient  DownloadComplete_Test:vector  ETV
attr source BitTorrentClient_DownloadComplete_Test
attr title "Descargas completas (prueba), vector"
37	22139 65 120 79630608 36001 36149.12012538514 2 36001 36149.120125385 72150.120125385 2602830886.8395
vector 39  BasicTopology.peer[19].bitTorrentApp.bitTorrentClient  DownloadComplete_Test:vector  ETV
attr source BitTorrentClient_DownloadComplete_Test
attr title "Descargas completas (prueba), vector"
39	22204 66 121 82690335 36001 36305.535219922782 2 36001 36305.535219923 72306.535219923 2614163888.6051
vector 41  BasicTopology.peer[20].bitTorrentApp.bitTorrentClient  DownloadComplete_Test:vector  ETV
attr source BitTorrentClient_DownloadComplete_Test
attr title "Descargas completas (prueba), vector"
41	22270 66 122 70518197 36001 36120.373049948118 2 36001 36120.373049948 72121.373049948 2600753350.2674
vector 43  BasicTopology.peer[21].bitTorrentApp.bitTorrentClient  DownloadComplete_Test:vector  ETV
attr source BitTorrentClient_DownloadComplete_Test
attr title "Descargas completas (prueba), vector"
43	22336 66 123 79248926 36001 36147.603847107879 2 36001 36147.603847108 72148.603847108 2602721264.8875
vector 45  BasicTopology.peer[22].bitTorrentApp.bitTorrentClient  DownloadComplete_Test:vector  ETV
attr source BitTorrentClient_DownloadComplete_Test
attr title "Descargas completas (prueba), vector"
45	22402 66 124 82429815 36001 36303.415738191124 2 36001 36303.415738191 72304.415738191 2614009995.2599
vector 47  BasicTopology.peer[23].bitTorrentApp.bitTorrentClient  DownloadComplete_Test:vector  ETV
attr source BitTorrentClient_DownloadComplete_Test
attr title "Descargas completas (prueba), vector"
47	22468 66 125 70981692 36001 36121.389287718765 2 36001 36121.389287719 72122.389287719 2600826765.0749
vector 49  BasicTopology.peer[24].bitTorrentApp.bitTorrentClient  DownloadComplete_Test:vector  ETV
attr source BitTorrentClient_DownloadComplete_Test
attr title "Descargas completas (prueba), vector"
49	22534 66 126 80593871 36001 36155.225845290873 2 36001 36155.225845291 72156.225845291 2603272356.924
vector 833  BasicTopology.peer[0].bitTorrentApp.bitTorrentClient.contentManager_26  TotalBytesUploaded:vector  ETV
attr source ContentManager_TotalBytesUploaded
attr title "Total of Bytes Uploaded, vector"
attr unit B
833	22600 19540 113375 70120387 36001.080901647519 36119.504800585795 499 16384 8175616 2043904000 1.1151278604288e+16
vector 992  BasicTopology.peer[20].bitTorrentApp.bitTorrentClient.contentManager_26  TotalBytesDownloaded:vector  ETV
attr source ContentManager_TotalBytesDownloaded
attr title "Total of Bytes Downloaded, vector"
attr unit B
992	332974 7509 206037 70518197 36001.195734991757 36120.373049948118 192 16384 3145728 303562752 6.3827508985856e+14
vector 991  BasicTopology.peer[20].bitTorrentApp.bitTorrentClient.contentManager_26  PiecesDownloaded:vector  ETV
attr source ContentManager_PieceDownloaded
attr title "Pieces Downloaded, vector"
991	332153 821 455089 70518197 36002.409144256039 36120.373049948118 24 0 23 276 4324
vector 993  BasicTopology.peer[20].bitTorrentApp.bitTorrentClient.contentManager_26  TotalBytesUploaded:vector  ETV
attr source ContentManager_TotalBytesUploaded
attr title "Total of Bytes Uploaded, vector"
attr unit B
993	340483 15961 469978 79128859 36002.448044428929 36146.468509458064 406 16384 6651904 1353662464 6.0103479745577e+15
vector 912  BasicTopology.peer[10].bitTorrentApp.bitTorrentClient.contentManager_26  TotalBytesDownloaded:vector  ETV
attr source ContentManager_TotalBytesDownloaded
attr title "Total of Bytes Downloaded, vector"
attr unit B
912	184628 7516 480817 31594689 36002.4800715972 36051.034335222701 192 16384 3145728 303562752 6.3827508985856e+14
vector 920  BasicTopology.peer[11].bitTorrentApp.bitTorrentClient.contentManager_26  TotalBytesDownloaded:vector  ETV
attr source ContentManager_TotalBytesDownloaded
attr title "Total of Bytes Downloaded, vector"
attr unit B
920	209478 7984 730789 79387828 36003.851619733757 36148.560735748043 202 16384 3309568 335921152 7.4300384083968e+14
vector 1008  BasicTopology.peer[22].bitTorrentApp.bitTorrentClient.contentManager_26  TotalBytesDownloaded:vector  ETV
attr source ContentManager_TotalBytesDownloaded
attr title "Total of Bytes Downloaded, vector"
attr unit B
1008	377907 7823 915497 82429815 36004.132078519986 36303.415738191124 194 16384 3178496 309903360 6.5837687898112e+14
vector 1007  BasicTopology.peer[22].bitTorrentApp.bitTorrentClient.contentManager_26  PiecesDownloaded:vector  ETV
attr source ContentManager_PieceDownloaded
attr title "Pieces Downloaded, vector"
1007	377060 847 1011553 82429815 36004.379128339458 36303.415738191124 24 0 23 276 4324
vector 856  BasicTopology.peer[3].bitTorrentApp.bitTorrentClient.contentManager_26  TotalBytesDownloaded:vector  ETV
attr source ContentManager_TotalBytesDownloaded
attr title "Total of Bytes Downloaded, vector"
attr unit B
856	81389 7564 1042149 57578317 36004.45237029311 36094.652132753305 192 16384 3145728 303562752 6.3827508985856e+14
vector 1009  BasicTopology.peer[22].bitTorrentApp.bitTorrentClient.contentManager_26  TotalBytesUploaded:vector  ETV
attr source ContentManager_TotalBytesUploaded
attr title "Total of Bytes Uploaded, vector"
attr unit B
1009	385730 9617 1047851 66484993 36004.468572472228 36111.893251268371 239 16384 3915776 469893120 1.2292303775334e+15
vector 911  BasicTopology.peer[10].bitTorrentApp.bitTorrentClient.contentManager_26  PiecesDownloaded:vector  ETV
attr source ContentManager_PieceDownloaded
attr title "Pieces Downloaded, vector"
911	183808 820 1180110 31594689 36004.615336555332 36051.034335222701 24 0 23 276 4324
vector 913  BasicTopology.peer[10].bitTorrentApp.bitTorrentClient.contentManager_26  TotalBytesUploaded:vector  ETV
attr source ContentManager_TotalBytesUploaded
attr title "Total of Bytes Uploaded, vector"
attr unit B
913	192144 16507 1218005 73256311 36004.670459192149 36126.547607238101 419 16384 6864896 1441628160 6.6056248046387e+15
vector 936  BasicTopology.peer[13].bitTorrentApp.bitTorrentClient.contentManager_26  TotalBytesDownloaded:vector  ETV
attr source ContentManager_TotalBytesDownloaded
attr title "Total of Bytes Downloaded, vector"
attr unit B
936	241022 7573 1244498 74892250 36004.735026303694 36130.102803683292 192 16384 3145728 303562752 6.3827508985856e+14
vector 944  BasicTopology.peer[14].bitTorrentApp.bitTorrentClient.contentManager_26  TotalBytesDownloaded:vector  ETV
attr source ContentManager_TotalBytesDownloaded
attr title "Total of Bytes Downloaded, vector"
attr unit B
944	260744 8531 1587843 78747856 36005.699152111772 36142.201464520592 216 16384 3538944 383975424 9.0800869972378e+14
vector 1024  BasicTopology.peer[24].bitTorrentApp.bitTorrentClient.contentManager_26  TotalBytesDownloaded:vector  ETV
attr source ContentManager_TotalBytesDownloaded
attr title "Total of Bytes Downloaded, vector"
attr unit B
1024	412561 8515 1741169 80593871 36006.117885974826 36155.225845290873 210 16384 3440640 362987520 8.3458864971776e+14
vector 840  BasicTopology.peer[1].bitTorrentApp.bitTorrentClient.contentManager_26  TotalBytesDownloaded:vector  ETV
attr source ContentManager_TotalBytesDownloaded
attr title "Total of Bytes Downloaded, vector"
attr unit B
840	42958 8607 1759651 61874004 36006.184396589648 36102.681171783387 220 16384 3604480 398295040 9.5927289249792e+14
vector 919  BasicTopology.peer[11].bitTorrentApp.bitTorrentClient.contentManager_26  PiecesDownloaded:vector  ETV
attr source ContentManager_PieceDownloaded
attr title "Pieces Downloaded, vector"
919	208651 827 1791197 79387828 36006.245737425572 36148.560735748043 24 0 23 276 4324
vector 921  BasicTopology.peer[11].bitTorrentApp.bitTorrentClient.contentManager_26  TotalBytesUploaded:vector  ETV
attr source ContentManager_TotalBytesUploaded
attr title "Total of Bytes Uploaded, vector"
attr unit B
921	217462 10562 1815550 74787699 36006.297885591012 36129.895176778134 267 16384 4374528 586186752 1.712728267817e+15
vector 848  BasicTopology.peer[2].bitTorrentApp.bitTorrentClient.contentManager_26  TotalBytesDownloaded:vector  ETV
attr source ContentManager_TotalBytesDownloaded
attr title "Total of Bytes Downloaded, vector"
attr unit B
848	61093 8049 1879708 54711901 36006.422528358412 36089.311391960269 204 16384 3342336 342589440 7.6523700748288e+14
vector 880  BasicTopology.peer[6].bitTorrentApp.bitTorrentClient.contentManager_26  TotalBytesDownloaded:vector  ETV
attr source ContentManager_TotalBytesDownloaded
attr title "Total of Bytes Downloaded, vector"
attr unit B
880	131655 7572 1945805 76091753 36006.550170804469 36133.110712340215 192 16384 3145728 303562752 6.3827508985856e+14
vector 976  BasicTopology.peer[18].bitTorrentApp.bitTorrentClient.contentManager_26  TotalBytesDownloaded:vector  ETV
attr source ContentManager_TotalBytesDownloaded
attr title "Total of Bytes Downloaded, vector"
attr unit B
976	310766 9015 1956457 79630608 36006.564572112579 36149.12012538514 228 16384 3735552 427720704 1.0675178795172e+15
vector 896  BasicTopology.peer[8].bitTorrentApp.bitTorrentClient.contentManager_26  TotalBytesDownloaded:vector  ETV
attr source ContentManager_TotalBytesDownloaded
attr title "Total of Bytes Downloaded, vector"
attr unit B
896	154110 7886 2380536 78379369 36007.258192417176 36140.267884051226 200 16384 3276800 329318400 7.212055396352e+14
vector 839  BasicTopology.peer[1].bitTorrentApp.bitTorrentClient.contentManager_26  PiecesDownloaded:vector  ETV
attr source ContentManager_PieceDownloaded
attr title "Pieces Downloaded, vector"
839	42140 818 2387019 33359835 36007.26845316458 36053.502109020884 24 0 23 276 4324
vector 841  BasicTopology.peer[1].bitTorrentApp.bitTorrentClient.contentManager_26  TotalBytesUploaded:vector  ETV
attr source ContentManager_TotalBytesUploaded
attr title "Total of Bytes Uploaded, vector"
attr unit B
841	51565 8703 2436225 72362607 36007.334954514192 36124.55556556185 221 16384 3620864 401915904 9.7238354860442e+14
vector 1000  BasicTopology.peer[21].bitTorrentApp.bitTorrentClient.contentManager_26  TotalBytesDownloaded:vector  ETV
attr source ContentManager_TotalBytesDownloaded
attr title "Total of Bytes Downloaded, vector"
attr unit B
1000	357268 8063 2681868 79248926 36007.761863346612 36147.603847107879 200 16384 3276800 329318400 7.212055396352e+14
vector 895  BasicTopology.peer[8].bitTorrentApp.bitTorrentClient.contentManager_26  PiecesDownloaded:vector  ETV
attr source ContentManager_PieceDownloaded
attr title "Pieces Downloaded, vector"
895	153283 827 2785586 78379369 36007.953791292644 36140.267884051226 24 0 23 276 4324
vector 897  BasicTopology.peer[8].bitTorrentApp.bitTorrentClient.contentManager_26  TotalBytesUploaded:vector  ETV
attr source ContentManager_TotalBytesUploaded
attr title "Total of Bytes Uploaded, vector"
attr unit B
897	161996 7157 2799280 59912485 36007.967923197896 36098.968124438137 183 16384 2998272 275841024 5.5287073891942e+14
vector 984  BasicTopology.peer[19].bitTorrentApp.bitTorrentClient.contentManager_26  TotalBytesDownloaded:vector  ETV
attr source ContentManager_TotalBytesDownloaded
attr title "Total of Bytes Downloaded, vector"
attr unit B
984	322069 8533 2822895 82690335 36007.998411920245 36305.535219922782 216 16384 3538944 383975424 9.0800869972378e+14
vector 935  BasicTopology.peer[13].bitTorrentApp.bitTorrentClient.contentManager_26  PiecesDownloaded:vector  ETV
attr source ContentManager_PieceDownloaded
attr title "Pieces Downloaded, vector"
935	240194 828 2888578 74892250 36008.125639976975 36130.102803683292 24 0 23 276 4324
vector 937  BasicTopology.peer[13].bitTorrentApp.bitTorrentClient.contentManager_26  TotalBytesUploaded:vector  ETV
attr source ContentManager_TotalBytesUploaded
attr title "Total of Bytes Uploaded, vector"
attr unit B
937	248595 11325 2908242 64609808 36008.165164674548 36107.86753177593 287 16384 4702208 677117952 2.1263309340672e+15
vector 864  BasicTopology.peer[4].bitTorrentApp.bitTorrentClient.contentManager_26  TotalBytesDownloaded:vector  ETV
attr source ContentManager_TotalBytesDownloaded
attr title "Total of Bytes Downloaded, vector"
attr unit B
864	98564 7587 2939497 69080024 36008.234305793583 36117.292200682081 192 16384 3145728 303562752 6.3827508985856e+14
vector 863  BasicTopology.peer[4].bitTorrentApp.bitTorrentClient.contentManager_26  PiecesDownloaded:vector  ETV
attr source ContentManager_PieceDownloaded
attr title "Pieces Downloaded, vector"
863	97737 827 3040195 69080024 36008.454575362197 36117.292200682081 24 0 23 276 4324
vector 865  BasicTopology.peer[4].bitTorrentApp.bitTorrentClient.contentManager_26  TotalBytesUploaded:vector  ETV
attr source ContentManager_TotalBytesUploaded
attr title "Total of Bytes Uploaded, vector"
attr unit B
865	106151 8676 3053013 70780937 36008.490813854647 36120.913148135361 220 16384 3604480 398295040 9.5927289249792e+14
vector 904  BasicTopology.peer[9].bitTorrentApp.bitTorrentClient.contentManager_26  TotalBytesDownloaded:vector  ETV
attr source ContentManager_TotalBytesDownloaded
attr title "Total of Bytes Downloaded, vector"
attr unit B
904	169981 8213 3154116 75794110 36008.634638305319 36132.451002486645 208 16384 3407872 356122624 8.1102511695462e+14
vector 903  BasicTopology.peer[9].bitTorrentApp.bitTorrentClient.contentManager_26  PiecesDownloaded:vector  ETV
attr source ContentManager_PieceDownloaded
attr title "Pieces Downloaded, vector"
903	169153 828 3477182 75576045 36009.086511874572 36131.710173210729 24 0 23 276 4324
vector 905  BasicTopology.peer[9].bitTorrentApp.bitTorrentClient.contentManager_26  TotalBytesUploaded:vector  ETV
attr source ContentManager_TotalBytesUploaded
attr title "Total of Bytes Uploaded, vector"
attr unit B
905	178194 5614 3518325 56994960 36009.133265797111 36093.544068477917 144 16384 2359296 171048960 2.6997090680832e+14
vector 960  BasicTopology.peer[16].bitTorrentApp.bitTorrentClient.contentManager_26  TotalBytesDownloaded:vector  ETV
attr source ContentManager_TotalBytesDownloaded
attr title "Total of Bytes Downloaded, vector"
attr unit B
960	287242 8091 3545115 77937773 36009.171942964871 36137.844581671909 205 16384 3358720 345948160 7.7651800752128e+14
vector 983  BasicTopology.peer[19].bitTorrentApp.bitTorrentClient.contentManager_26  PiecesDownloaded:vector  ETV
attr source ContentManager_PieceDownloaded
attr title "Pieces Downloaded, vector"
983	321245 824 3585319 82690335 36009.231718361332 36305.535219922782 24 0 23 276 4324
vector 1023  BasicTopology.peer[24].bitTorrentApp.bitTorrentClient.contentManager_26  PiecesDownloaded:vector  ETV
attr source ContentManager_PieceDownloaded
attr title "Pieces Downloaded, vector"
1023	411710 851 3755558 80593871 36009.491342049684 36155.225845290873 24 0 23 276 4324
vector 1025  BasicTopology.peer[24].bitTorrentApp.bitTorrentClient.contentManager_26  TotalBytesUploaded:vector  ETV
attr source ContentManager_TotalBytesUploaded
attr title "Total of Bytes Uploaded, vector"
attr unit B
1025	421076 7601 3793701 75252022 36009.550215256829 36130.817391476098 188 16384 3080192 291078144 5.9930738845286e+14
vector 968  BasicTopology.peer[17].bitTorrentApp.bitTorrentClient.contentManager_26  TotalBytesDownloaded:vector  ETV
attr source ContentManager_TotalBytesDownloaded
attr title "Total of Bytes Downloaded, vector"
attr unit B
968	296767 8292 3955360 79826349 36009.762204388406 36149.834430928542 210 16384 3440640 362987520 8.3458864971776e+14
vector 952  BasicTopology.peer[15].bitTorrentApp.bitTorrentClient.contentManager_26  TotalBytesDownloaded:vector  ETV
attr source ContentManager_TotalBytesDownloaded
attr title "Total of Bytes Downloaded, vector"
attr unit B
952	275674 8016 3967559 74084383 36009.791472170325 36128.262988166691 203 16384 3325952 339247104 7.5406579754598e+14
vector 872  BasicTopology.peer[5].bitTorrentApp.bitTorrentClient.contentManager_26  TotalBytesDownloaded:vector  ETV
attr source ContentManager_TotalBytesDownloaded
attr title "Total of Bytes Downloaded, vector"
attr unit B
872	115653 7799 3993787 78992051 36009.840629403821 36145.372804326804 198 16384 3244032 322781184 6.9983780890214e+14
vector 943  BasicTopology.peer[14].bitTorrentApp.bitTorrentClient.contentManager_26  PiecesDownloaded:vector  ETV
attr source ContentManager_PieceDownloaded
attr title "Pieces Downloaded, vector"
943	259920 824 4253801 78747856 36010.217145267166 36142.201464520592 24 0 23 276 4324
vector 945  BasicTopology.peer[14].bitTorrentApp.bitTorrentClient.contentManager_26  TotalBytesUploaded:vector  ETV
attr source ContentManager_TotalBytesUploaded
attr title "Total of Bytes Uploaded, vector"
attr unit B
945	269275 5577 4261962 71475866 36010.254040665584 36122.578334117523 142 16384 2326528 166346752 2.5891539255296e+14
vector 847  BasicTopology.peer[2].bitTorrentApp.bitTorrentClient.contentManager_26  PiecesDownloaded:vector  ETV
attr source ContentManager_PieceDownloaded
attr title "Pieces Downloaded, vector"
847	60268 825 4530734 54711901 36010.711795075316 36089.311391960269 24 0 23 276 4324
vector 975  BasicTopology.peer[18].bitTorrentApp.bitTorrentClient.contentManager_26  PiecesDownloaded:vector  ETV
attr source ContentManager_PieceDownloaded
attr title "Pieces Downloaded, vector"
975	309940 826 4537201 79630608 36010.718526547504 36149.12012538514 24 0 23 276 4324
vector 977  BasicTopology.peer[18].bitTorrentApp.bitTorrentClient.contentManager_26  TotalBytesUploaded:vector  ETV
attr source ContentManager_TotalBytesUploaded
attr title "Total of Bytes Uploaded, vector"
attr unit B
977	319781 1464 4552027 81902644 36010.741624404071 36301.160600860473 38 16384 622592 12140544 5105373937664
vector 849  BasicTopology.peer[2].bitTorrentApp.bitTorrentClient.contentManager_26  TotalBytesUploaded:vector  ETV
attr source ContentManager_TotalBytesUploaded
attr title "Total of Bytes Uploaded, vector"
attr unit B
849	69142 11421 4554925 67830307 36010.748394895565 36114.632430193986 289 16384 4734976 686571520 2.1710160422502e+15
vector 959  BasicTopology.peer[16].bitTorrentApp.bitTorrentClient.contentManager_26  PiecesDownloaded:vector  ETV
attr source ContentManager_PieceDownloaded
attr title "Pieces Downloaded, vector"
959	286417 825 4595365 76590126 36010.80426226758 36134.211252017622 24 0 23 276 4324
vector 855  BasicTopology.peer[3].bitTorrentApp.bitTorrentClient.contentManager_26  PiecesDownloaded:vector  ETV
attr source ContentManager_PieceDownloaded
attr title "Pieces Downloaded, vector"
855	80563 826 4653589 57578317 36010.867752481162 36094.652132753305 24 0 23 276 4324
vector 951  BasicTopology.peer[15].bitTorrentApp.bitTorrentClient.contentManager_26  PiecesDownloaded:vector  ETV
attr source ContentManager_PieceDownloaded
attr title "Pieces Downloaded, vector"
951	274852 822 4828923 74084383 36011.168010900504 36128.262988166691 24 0 23 276 4324
vector 999  BasicTopology.peer[21].bitTorrentApp.bitTorrentClient.contentManager_26  PiecesDownloaded:vector  ETV
attr source ContentManager_PieceDownloaded
attr title "Pieces Downloaded, vector"
999	356444 824 4882821 79248926 36011.247050844041 36147.603847107879 24 0 23 276 4324
vector 1016  BasicTopology.peer[23].bitTorrentApp.bitTorrentClient.contentManager_26  TotalBytesDownloaded:vector  ETV
attr source ContentManager_TotalBytesDownloaded
attr title "Total of Bytes Downloaded, vector"
attr unit B
1016	396195 7754 4903575 70981692 36011.279236821988 36121.389287718765 192 16384 3145728 303562752 6.3827508985856e+14
vector 888  BasicTopology.peer[7].bitTorrentApp.bitTorrentClient.contentManager_26  TotalBytesDownloaded:vector  ETV
attr source ContentManager_TotalBytesDownloaded
attr title "Total of Bytes Downloaded, vector"
attr unit B
888	143215 7581 4980543 80665768 36011.420438053548 36155.383861446281 192 16384 3145728 303562752 6.3827508985856e+14
vector 928  BasicTopology.peer[12].bitTorrentApp.bitTorrentClient.contentManager_26  TotalBytesDownloaded:vector  ETV
attr source ContentManager_TotalBytesDownloaded
attr title "Total of Bytes Downloaded, vector"
attr unit B
928	228851 7588 5212907 82188530 36011.972054407225 36302.771067617804 192 16384 3145728 303562752 6.3827508985856e+14
vector 927  BasicTopology.peer[12].bitTorrentApp.bitTorrentClient.contentManager_26  PiecesDownloaded:vector  ETV
attr source ContentManager_PieceDownloaded
attr title "Pieces Downloaded, vector"
927	228024 827 5469048 82188530 36012.343679222477 36302.771067617804 24 0 23 276 4324
vector 871  BasicTopology.peer[5].bitTorrentApp.bitTorrentClient.contentManager_26  PiecesDownloaded:vector  ETV
attr source ContentManager_PieceDownloaded
attr title "Pieces Downloaded, vector"
871	114827 826 5689491 78992051 36012.734037653167 36145.372804326804 24 0 23 276 4324
vector 961  BasicTopology.peer[16].bitTorrentApp.bitTorrentClient.contentManager_26  TotalBytesUploaded:vector  ETV
attr source ContentManager_TotalBytesUploaded
attr title "Total of Bytes Uploaded, vector"
attr unit B
961	295333 607 6219781 48892796 36013.473472534045 36078.781751176173 16 16384 262144 2228224 401579442176
vector 967  BasicTopology.peer[17].bitTorrentApp.bitTorrentClient.contentManager_26  PiecesDownloaded:vector  ETV
attr source ContentManager_PieceDownloaded
attr title "Pieces Downloaded, vector"
967	295940 827 6222721 79826349 36013.478252238853 36149.834430928542 24 0 23 276 4324
vector 1015  BasicTopology.peer[23].bitTorrentApp.bitTorrentClient.contentManager_26  PiecesDownloaded:vector  ETV
attr source ContentManager_PieceDownloaded
attr title "Pieces Downloaded, vector"
1015	395347 848 6276932 70981692 36013.54340228417 36121.389287718765 24 0 23 276 4324
vector 1017  BasicTopology.peer[23].bitTorrentApp.bitTorrentClient.contentManager_26  TotalBytesUploaded:vector  ETV
attr source ContentManager_TotalBytesUploaded
attr title "Total of Bytes Uploaded, vector"
attr unit B
1017	403949 7761 6589569 74819474 36014.135306465496 36129.969025867921 192 16384 3145728 303562752 6.3827508985856e+14
vector 879  BasicTopology.peer[6].bitTorrentApp.bitTorrentClient.contentManager_26  PiecesDownloaded:vector  ETV
attr source ContentManager_PieceDownloaded
attr title "Pieces Downloaded, vector"
879	130830 825 6805543 76091753 36014.432774337749 36133.110712340215 24 0 23 276 4324
vector 857  BasicTopology.peer[3].bitTorrentApp.bitTorrentClient.contentManager_26  TotalBytesUploaded:vector  ETV
attr source ContentManager_TotalBytesUploaded
attr title "Total of Bytes Uploaded, vector"
attr unit B
857	88953 8784 6864877 57051680 36014.540540923663 36093.64327226705 223 16384 3653632 409206784 9.9896214840934e+14
vector 1001  BasicTopology.peer[21].bitTorrentApp.bitTorrentClient.contentManager_26  TotalBytesUploaded:vector  ETV
attr source ContentManager_TotalBytesUploaded
attr title "Total of Bytes Uploaded, vector"
attr unit B
1001	365331 11729 7904460 79437008 36016.115770107833 36148.68128217621 289 16384 4734976 686571520 2.1710160422502e+15
vector 873  BasicTopology.peer[5].bitTorrentApp.bitTorrentClient.contentManager_26  TotalBytesUploaded:vector  ETV
attr source ContentManager_TotalBytesUploaded
attr title "Total of Bytes Uploaded, vector"
attr unit B
873	123452 7378 9669630 56234454 36018.761193616663 36092.2101703248 187 16384 3063808 287997952 5.89819805696e+14
vector 887  BasicTopology.peer[7].bitTorrentApp.bitTorrentClient.contentManager_26  PiecesDownloaded:vector  ETV
attr source ContentManager_PieceDownloaded
attr title "Pieces Downloaded, vector"
887	142389 826 9921293 80665768 36019.173436164499 36155.383861446281 24 0 23 276 4324
vector 953  BasicTopology.peer[15].bitTorrentApp.bitTorrentClient.contentManager_26  TotalBytesUploaded:vector  ETV
attr source ContentManager_TotalBytesUploaded
attr title "Total of Bytes Uploaded, vector"
attr unit B
953	283690 2727 11274697 82482752 36020.999825356693 36304.011579747108 70 16384 1146880 40714240 31351919083520
vector 969  BasicTopology.peer[17].bitTorrentApp.bitTorrentClient.contentManager_26  TotalBytesUploaded:vector  ETV
attr source ContentManager_TotalBytesUploaded
attr title "Total of Bytes Uploaded, vector"
attr unit B
969	305059 4881 11621760 80315233 36021.505465935786 36153.940285268239 124 16384 2031616 126976000 1.72671107072e+14