file 419976 1593887686                                          
version 2
run Test-11-20200526-14:54:00-7101
attr configname Test
attr datetime 20200526-14:54:00
attr experiment "\"Simulation Test\""
attr inifile BasicConfig.ini
attr iterationvars ""
attr iterationvars2 $repetition=11
attr measurement "\"Peers: $peers, Rate: $rate\""
attr network BasicTopology
attr processid 7101
attr repetition 11
attr replication #11
attr resultdir results
attr runnumber 11
attr seedset 11
vector 3  BasicTopology.peer[1].bitTorrentApp.bitTorrentClient  DownloadComplete_Test:vector  ETV
attr source BitTorrentClient_DownloadComplete_Test
attr title "Descargas completas (prueba), vector"
3	20811 64 103 15310033 36001 36027.198693406086 2 36001 36027.198693406 72028.198693406 2594031046.6942
vector 5  BasicTopology.peer[2].bitTorrentApp.bitTorrentClient  DownloadComplete_Test:vector  ETV
attr source BitTorrentClient_DownloadComplete_Test
attr title "Descargas completas (prueba), vector"
5	20875 64 104 57810133 36001 36097.367288417885 2 36001 36097.367288418 72098.367288418 2599091926.1549
vector 7  BasicTopology.peer[3].bitTorrentApp.bitTorrentClient  DownloadComplete_Test:vector  ETV
attr source BitTorrentClient_DownloadComplete_Test
attr title "Descargas completas (prueba), vector"
7	20939 63 105 74959431 36001 36134.99845806543 2 36001 36134.998458065 72135.998458065 2601810114.5644
vector 9  BasicTopology.peer[4].bitTorrentApp.bitTorrentClient  DownloadComplete_Test:vector  ETV
attr source BitTorrentClient_DownloadComplete_Test
attr title "Descargas completas (prueba), vector"
9	21002 63 106 64131822 36001 36110.42853130456 2 36001 36110.428531305 72111.428531305 2600035049.7145
vector 11  BasicTopology.peer[5].bitTorrentApp.bitTorrentClient  DownloadComplete_Test:vector  ETV
attr source BitTorrentClient_DownloadComplete_Test
attr title "Descargas completas (prueba), vector"
11	21065 66 107 72967010 36001 36128.465598885454 2 36001 36128.465598885 72129.465598885 2601338027.5298
vector 13  BasicTopology.peer[6].bitTorrentApp.bitTorrentClient  DownloadComplete_Test:vector  ETV
attr source BitTorrentClient_DownloadComplete_Test
attr title "Descargas completas (prueba), vector"
13	21131 66 108 75229375 36001 36136.449241376938 2 36001 36136.449241377 72137.449241377 2601914964.7746
vector 15  BasicTopology.peer[7].bitTorrentApp.bitTorrentClient  DownloadComplete_Test:vector  ETV
attr source BitTorrentClient_DownloadComplete_Test
attr title "Descargas completas (prueba), vector"
15	21197 66 109 76510630 36001 36155.283040287109 2 36001 36155.283040287 72156.283040287 2603276492.7233
vector 17  BasicTopology.peer[8].bitTorrentApp.bitTorrentClient  DownloadComplete_Test:vector  ETV
attr source BitTorrentClient_DownloadComplete_Test
attr title "Descargas completas (prueba), vector"
17	21263 66 110 76330734 36001 36152.856661495093 2 36001 36152.856661495 72153.856661495 2603101045.7866
vector 19  BasicTopology.peer[9].bitTorrentApp.bitTorrentClient  DownloadComplete_Test:vector  ETV
attr source BitTorrentClient_DownloadComplete_Test
attr title "Descargas completas (prueba), vector"
19	21329 66 111 72198089 36001 36126.813942483783 2 36001 36126.813942484 72127.813942484 2601218686.6349
vector 21  BasicTopology.peer[10].bitTorrentApp.bitTorrentClient  DownloadComplete_Test:vector  ETV
attr source BitTorrentClient_DownloadComplete_Test
attr title "Descargas completas (prueba), vector"
21	21395 66 112 71545211 36001 36125.267752674019 2 36001 36125.267752674 72126.267752674 2601106971.2024
vector 23  BasicTopology.peer[11].bitTorrentApp.bitTorrentClient  DownloadComplete_Test:vector  ETV
attr source BitTorrentClient_DownloadComplete_Test
attr title "Descargas completas (prueba), vector"
23	21461 66 113 76122680 36001 36151.164068915889 2 36001 36151.164068916 72152.164068916 2602978664.5377
vector 25  BasicTopology.peer[12].bitTorrentApp.bitTorrentClient  DownloadComplete_Test:vector  ETV
attr source BitTorrentClient_DownloadComplete_Test
attr title "Descargas completas (prueba), vector"
25	21527 66 114 60576976 36001 36103.211349468931 2 36001 36103.211349469 72104.211349469 2599513870.7444
vector 27  BasicTopology.peer[13].bitTorrentApp.bitTorrentClient  DownloadComplete_Test:vector  ETV
attr source BitTorrentClient_DownloadComplete_Test
attr title "Descargas completas (prueba), vector"
27	21593 66 115 75784707 36001 36148.893299557704 2 36001 36148.893299558 72149.893299558 2602814487.7828
vector 29  BasicTopology.peer[14].bitTorrentApp.bitTorrentClient  DownloadComplete_Test:vector  ETV
attr source BitTorrentClient_DownloadComplete_Test
attr title "Descargas completas (prueba), vector"
29	21659 66 116 77316582 36001 36166.062554727592 2 36001 36166.062554728 72167.062554728 2604056081.7125
vector 31  BasicTopology.peer[15].bitTorrentApp.bitTorrentClient  DownloadComplete_Test:vector  ETV
attr source BitTorrentClient_DownloadComplete_Test
attr title "Descargas completas (prueba), vector"
31	21725 65 117 71043605 36001 36124.349627089853 2 36001 36124.34962709 72125.34962709 2601040636.9802
vector 33  BasicTopology.peer[16].bitTorrentApp.bitTorrentClient  DownloadComplete_Test:vector  ETV
attr source BitTorrentClient_DownloadComplete_Test
attr title "Descargas completas (prueba), vector"
33	21790 66 118 74553447 36001 36132.819098798031 2 36001 36132.819098798 72133.819098798 2601652617.0265
vector 35  BasicTopology.peer[17].bitTorrentApp.bitTorrentClient  DownloadComplete_Test:vector  ETV
attr source BitTorrentClient_DownloadComplete_Test
attr title "Descargas completas (prueba), vector"
35	21856 65 119 75440007 36001 36137.61907574416 2 36001 36137.619075744 72138.619075744 2601999513.4636
vector 37  BasicTopology.peer[18].bitTorrentApp.bitTorrentClient  DownloadComplete_Test:vector  ETV
attr source BitTorrentClient_DownloadComplete_Test
attr title "Descargas completas (prueba), vector"
37	21921 65 120 70153736 36001 36122.43491043918 2 36001 36122.434910439 72123.434910439 2600902304.8589
vector 39  BasicTopology.peer[19].bitTorrentApp.bitTorrentClient  DownloadComplete_Test:vector  ETV
attr source BitTorrentClient_DownloadComplete_Test
attr title "Descargas completas (prueba), vector"
39	21986 66 121 71725711 36001 36125.817223688591 2 36001 36125.817223689 72126.817223689 2601146671.0794
vector 41  BasicTopology.peer[20].bitTorrentApp.bitTorrentClient  DownloadComplete_Test:vector  ETV
attr source BitTorrentClient_DownloadComplete_Test
attr title "Descargas completas (prueba), vector"
41	22052 66 122 28625361 36001 36047.809234647054 2 36001 36047.809234647 72048.809234647 2595516551.6175
vector 43  BasicTopology.peer[21].bitTorrentApp.bitTorrentClient  DownloadComplete_Test:vector  ETV
attr source BitTorrentClient_DownloadComplete_Test
attr title "Descargas completas (prueba), vector"
43	22118 66 123 37943419 36001 36061.761172109272 2 36001 36061.761172109 72062.761172109 2596522619.8342
vector 45  BasicTopology.peer[22].bitTorrentApp.bitTorrentClient  DownloadComplete_Test:vector  ETV
attr source BitTorrentClient_DownloadComplete_Test
attr title "Descargas completas (prueba), vector"
45	22184 64 124 71766467 36001 36125.9922147426 2 36001 36125.992214743 72126.992214743 2601159314.4997
vector 47  BasicTopology.peer[23].bitTorrentApp.bitTorrentClient  DownloadComplete_Test:vector  ETV
attr source BitTorrentClient_DownloadComplete_Test
attr title "Descargas completas (prueba), vector"
47	22248 66 125 75355296 36001 36136.945186974165 2 36001 36136.945186974 72137.945186974 2601950808.4464
vector 49  BasicTopology.peer[24].bitTorrentApp.bitTorrentClient  DownloadComplete_Test:vector  ETV
attr source BitTorrentClient_DownloadComplete_Test
attr title "Descargas completas (prueba), vector"
49	22314 66 126 69229315 36001 36120.533484212322 2 36001 36120.533484212 72121.533484212 2600764940.1841
vector 833  BasicTopology.peer[0].bitTorrentApp.bitTorrentClient.contentManager_26  TotalBytesUploaded:vector  ETV
attr source ContentManager_TotalBytesUploaded
attr title "Total of Bytes Uploaded, vector"
attr unit B
833	22380 19022 119765 61922300 36001.089374296207 36105.995573205164 486 16384 7962624 1938898944 1.0303071150146e+16
vector 840  BasicTopology.peer[1].bitTorrentApp.bitTorrentClient.contentManager_26  TotalBytesDownloaded:vector  ETV
attr source ContentManager_TotalBytesDownloaded
attr title "Total of Bytes Downloaded, vector"
attr unit B
840	42209 7425 179298 15310033 36001.151010068608 36027.198693406086 192 16384 3145728 303562752 6.3827508985856e+14
vector 839  BasicTopology.peer[1].bitTorrentApp.bitTorrentClient.contentManager_26  PiecesDownloaded:vector  ETV
attr source ContentManager_PieceDownloaded
attr title "Pieces Downloaded, vector"
839	41402 807 432783 15310033 36002.288901949547 36027.198693406086 24 0 23 276 4324
vector 841  BasicTopology.peer[1].bitTorrentApp.bitTorrentClient.contentManager_26  TotalBytesUploaded:vector  ETV
attr source ContentManager_TotalBytesUploaded
attr title "Total of Bytes Uploaded, vector"
attr unit B
841	49634 12125 452137 68463366 36002.339308812287 36118.932888551173 309 16384 5062656 784711680 2.6527691020698e+15
vector 896  BasicTopology.peer[8].bitTorrentApp.bitTorrentClient.contentManager_26  TotalBytesDownloaded:vector  ETV
attr source ContentManager_TotalBytesDownloaded
attr title "Total of Bytes Downloaded, vector"
attr unit B
896	160395 7957 501742 76330734 36002.429619465499 36152.856661495093 202 16384 3309568 335921152 7.4300384083968e+14
vector 992  BasicTopology.peer[20].bitTorrentApp.bitTorrentClient.contentManager_26  TotalBytesDownloaded:vector  ETV
attr source ContentManager_TotalBytesDownloaded
attr title "Total of Bytes Downloaded, vector"
attr unit B
992	328620 7556 539579 29353642 36002.50005825274 36048.930606599699 193 16384 3162112 306724864 6.482740421591e+14
vector 991  BasicTopology.peer[20].bitTorrentApp.bitTorrentClient.contentManager_26  PiecesDownloaded:vector  ETV
attr source ContentManager_PieceDownloaded
attr title "Pieces Downloaded, vector"
991	327801 819 933898 28625361 36003.808810561718 36047.809234647054 24 0 23 276 4324
vector 993  BasicTopology.peer[20].bitTorrentApp.bitTorrentClient.contentManager_26  TotalBytesUploaded:vector  ETV
attr source ContentManager_TotalBytesUploaded
attr title "Total of Bytes Uploaded, vector"
attr unit B
993	336176 13229 966894 67584128 36003.861588788545 36117.159898984492 335 16384 5488640 922091520 3.3790547827098e+15
vector 888  BasicTopology.peer[7].bitTorrentApp.bitTorrentClient.contentManager_26  TotalBytesDownloaded:vector  ETV
attr source ContentManager_TotalBytesDownloaded
attr title "Total of Bytes Downloaded, vector"
attr unit B
888	150608 7721 1176824 76510630 36004.133707483177 36155.283040287109 196 16384 3211264 316309504 6.7889635367322e+14
vector 1008  BasicTopology.peer[22].bitTorrentApp.bitTorrentClient.contentManager_26  TotalBytesDownloaded:vector  ETV
attr source ContentManager_TotalBytesDownloaded
attr title "Total of Bytes Downloaded, vector"
attr unit B
1008	372226 8037 1327826 71766467 36004.459986271627 36125.9922147426 199 16384 3260416 326041600 7.104681213952e+14
vector 895  BasicTopology.peer[8].bitTorrentApp.bitTorrentClient.contentManager_26  PiecesDownloaded:vector  ETV
attr source ContentManager_PieceDownloaded
attr title "Pieces Downloaded, vector"
895	159569 826 1588675 76330734 36005.092358443332 36152.856661495093 24 0 23 276 4324
vector 897  BasicTopology.peer[8].bitTorrentApp.bitTorrentClient.contentManager_26  TotalBytesUploaded:vector  ETV
attr source ContentManager_TotalBytesUploaded
attr title "Total of Bytes Uploaded, vector"
attr unit B
897	168352 7545 1624955 76402885 36005.202214390136 36153.043500294096 192 16384 3145728 303562752 6.3827508985856e+14
vector 936  BasicTopology.peer[13].bitTorrentApp.bitTorrentClient.contentManager_26  TotalBytesDownloaded:vector  ETV
attr source ContentManager_TotalBytesDownloaded
attr title "Total of Bytes Downloaded, vector"
attr unit B
936	242799 7564 1762125 75784707 36005.480727028146 36148.893299557704 192 16384 3145728 303562752 6.3827508985856e+14
vector 848  BasicTopology.peer[2].bitTorrentApp.bitTorrentClient.contentManager_26  TotalBytesDownloaded:vector  ETV
attr source ContentManager_TotalBytesDownloaded
attr title "Total of Bytes Downloaded, vector"
attr unit B
848	62584 7569 1840149 57810133 36005.629981584157 36097.367288417885 192 16384 3145728 303562752 6.3827508985856e+14
vector 1016  BasicTopology.peer[23].bitTorrentApp.bitTorrentClient.contentManager_26  TotalBytesDownloaded:vector  ETV
attr source ContentManager_TotalBytesDownloaded
attr title "Total of Bytes Downloaded, vector"
attr unit B
1016	390796 8412 2019029 75355296 36005.987430683418 36136.945186974165 208 16384 3407872 356122624 8.1102511695462e+14
vector 1007  BasicTopology.peer[22].bitTorrentApp.bitTorrentClient.contentManager_26  PiecesDownloaded:vector  ETV
attr source ContentManager_PieceDownloaded
attr title "Pieces Downloaded, vector"
1007	371382 844 2159630 71766467 36006.397404920539 36125.9922147426 24 0 23 276 4324
vector 1009  BasicTopology.peer[22].bitTorrentApp.bitTorrentClient.contentManager_26  TotalBytesUploaded:vector  ETV
attr source ContentManager_TotalBytesUploaded
attr title "Total of Bytes Uploaded, vector"
attr unit B
1009	380263 9681 2179361 71900553 36006.441036185802 36126.259043977351 240 16384 3932160 473825280 1.244692259799e+15
vector 912  BasicTopology.peer[10].bitTorrentApp.bitTorrentClient.contentManager_26  TotalBytesDownloaded:vector  ETV
attr source ContentManager_TotalBytesDownloaded
attr title "Total of Bytes Downloaded, vector"
attr unit B
912	189531 7583 2214146 71545211 36006.515650493537 36125.267752674019 192 16384 3145728 303562752 6.3827508985856e+14
vector 904  BasicTopology.peer[9].bitTorrentApp.bitTorrentClient.contentManager_26  TotalBytesDownloaded:vector  ETV
attr source ContentManager_TotalBytesDownloaded
attr title "Total of Bytes Downloaded, vector"
attr unit B
904	176722 8285 2366344 73867099 36006.805115309403 36130.688124756029 210 16384 3440640 362987520 8.3458864971776e+14
vector 880  BasicTopology.peer[6].bitTorrentApp.bitTorrentClient.contentManager_26  TotalBytesDownloaded:vector  ETV
attr source ContentManager_TotalBytesDownloaded
attr title "Total of Bytes Downloaded, vector"
attr unit B
880	133324 8374 2393583 75229375 36006.848124445166 36136.449241376938 212 16384 3473408 369917952 8.586042277888e+14
vector 864  BasicTopology.peer[4].bitTorrentApp.bitTorrentClient.contentManager_26  TotalBytesDownloaded:vector  ETV
attr source ContentManager_TotalBytesDownloaded
attr title "Total of Bytes Downloaded, vector"
attr unit B
864	98743 8240 2439952 65949769 36006.918732977511 36114.01625531805 209 16384 3424256 359546880 8.2275064610816e+14
vector 928  BasicTopology.peer[12].bitTorrentApp.bitTorrentClient.contentManager_26  TotalBytesDownloaded:vector  ETV
attr source ContentManager_TotalBytesDownloaded
attr title "Total of Bytes Downloaded, vector"
attr unit B
928	222244 7557 2641869 60576976 36007.544769487084 36103.211349468931 192 16384 3145728 303562752 6.3827508985856e+14
vector 903  BasicTopology.peer[9].bitTorrentApp.bitTorrentClient.contentManager_26  PiecesDownloaded:vector  ETV
attr source ContentManager_PieceDownloaded
attr title "Pieces Downloaded, vector"
903	175897 825 2870800 72198089 36008.074338962792 36126.813942483783 24 0 23 276 4324
vector 935  BasicTopology.peer[13].bitTorrentApp.bitTorrentClient.contentManager_26  PiecesDownloaded:vector  ETV
attr source ContentManager_PieceDownloaded
attr title "Pieces Downloaded, vector"
935	241975 824 2884556 75784707 36008.089542011647 36148.893299557704 24 0 23 276 4324
vector 937  BasicTopology.peer[13].bitTorrentApp.bitTorrentClient.contentManager_26  TotalBytesUploaded:vector  ETV
attr source ContentManager_TotalBytesUploaded
attr title "Total of Bytes Uploaded, vector"
attr unit B
937	250363 8638 2913554 76016877 36008.118768053328 36150.310225734577 220 16384 3604480 398295040 9.5927289249792e+14
vector 872  BasicTopology.peer[5].bitTorrentApp.bitTorrentClient.contentManager_26  TotalBytesDownloaded:vector  ETV
attr source ContentManager_TotalBytesDownloaded
attr title "Total of Bytes Downloaded, vector"
attr unit B
872	114760 7572 2948025 72967010 36008.157653112345 36128.465598885454 192 16384 3145728 303562752 6.3827508985856e+14
vector 905  BasicTopology.peer[9].bitTorrentApp.bitTorrentClient.contentManager_26  TotalBytesUploaded:vector  ETV
attr source ContentManager_TotalBytesUploaded
attr title "Total of Bytes Uploaded, vector"
attr unit B
905	185007 3698 2960115 53697408 36008.171253411188 36089.129537195909 96 16384 1572864 76283904 80406082748416
vector 944  BasicTopology.peer[14].bitTorrentApp.bitTorrentClient.contentManager_26  TotalBytesDownloaded:vector  ETV
attr source ContentManager_TotalBytesDownloaded
attr title "Total of Bytes Downloaded, vector"
attr unit B
944	259823 7807 2985571 77316582 36008.202090214348 36166.062554727592 198 16384 3244032 322781184 6.9983780890214e+14
vector 879  BasicTopology.peer[6].bitTorrentApp.bitTorrentClient.contentManager_26  PiecesDownloaded:vector  ETV
attr source ContentManager_PieceDownloaded
attr title "Pieces Downloaded, vector"
879	132497 827 3017112 75229375 36008.241051539029 36136.449241376938 24 0 23 276 4324
vector 881  BasicTopology.peer[6].bitTorrentApp.bitTorrentClient.contentManager_26  TotalBytesUploaded:vector  ETV
attr source ContentManager_TotalBytesUploaded
attr title "Total of Bytes Uploaded, vector"
attr unit B
881	141698 8085 3043553 54056733 36008.280551129487 36089.709319559973 205 16384 3358720 345948160 7.7651800752128e+14
vector 927  BasicTopology.peer[12].bitTorrentApp.bitTorrentClient.contentManager_26  PiecesDownloaded:vector  ETV
attr source ContentManager_PieceDownloaded
attr title "Pieces Downloaded, vector"
927	221421 823 3181457 60576976 36008.828340008718 36103.211349468931 24 0 23 276 4324
vector 929  BasicTopology.peer[12].bitTorrentApp.bitTorrentClient.contentManager_26  TotalBytesUploaded:vector  ETV
attr source ContentManager_TotalBytesUploaded
attr title "Total of Bytes Uploaded, vector"
attr unit B
929	229801 12174 3220715 66405486 36008.911893066173 36114.913580792503 308 16384 5046272 779649024 2.6271386162954e+15
vector 871  BasicTopology.peer[5].bitTorrentApp.bitTorrentClient.contentManager_26  PiecesDownloaded:vector  ETV
attr source ContentManager_PieceDownloaded
attr title "Pieces Downloaded, vector"
871	113935 825 3675606 72967010 36009.638690674323 36128.465598885454 24 0 23 276 4324
vector 873  BasicTopology.peer[5].bitTorrentApp.bitTorrentClient.contentManager_26  TotalBytesUploaded:vector  ETV
attr source ContentManager_TotalBytesUploaded
attr title "Total of Bytes Uploaded, vector"
attr unit B
873	122332 10165 3702832 57323151 36009.691950088224 36096.483217565167 258 16384 4227072 547405824 1.545605453185e+15
vector 952  BasicTopology.peer[15].bitTorrentApp.bitTorrentClient.contentManager_26  TotalBytesDownloaded:vector  ETV
attr source ContentManager_TotalBytesDownloaded
attr title "Total of Bytes Downloaded, vector"
attr unit B
952	272136 8371 3756104 71649921 36009.769727007979 36125.52494263811 212 16384 3473408 369917952 8.586042277888e+14
vector 984  BasicTopology.peer[19].bitTorrentApp.bitTorrentClient.contentManager_26  TotalBytesDownloaded:vector  ETV
attr source ContentManager_TotalBytesDownloaded
attr title "Total of Bytes Downloaded, vector"
attr unit B
984	317454 7894 3768812 71725711 36009.805648477448 36125.817223688591 200 16384 3276800 329318400 7.212055396352e+14
vector 847  BasicTopology.peer[2].bitTorrentApp.bitTorrentClient.contentManager_26  PiecesDownloaded:vector  ETV
attr source ContentManager_PieceDownloaded
attr title "Pieces Downloaded, vector"
847	61759 825 3840026 57810133 36009.924198341918 36097.367288417885 24 0 23 276 4324
vector 849  BasicTopology.peer[2].bitTorrentApp.bitTorrentClient.contentManager_26  TotalBytesUploaded:vector  ETV
attr source ContentManager_TotalBytesUploaded
attr title "Total of Bytes Uploaded, vector"
attr unit B
849	70153 12730 3895163 71710019 36009.995552016082 36125.786148859984 322 16384 5275648 852017152 3.0012815389491e+15
vector 920  BasicTopology.peer[11].bitTorrentApp.bitTorrentClient.contentManager_26  TotalBytesDownloaded:vector  ETV
attr source ContentManager_TotalBytesDownloaded
attr title "Total of Bytes Downloaded, vector"
attr unit B
920	204966 7576 4117686 76122680 36010.265890236232 36151.164068915889 192 16384 3145728 303562752 6.3827508985856e+14
vector 1000  BasicTopology.peer[21].bitTorrentApp.bitTorrentClient.contentManager_26  TotalBytesDownloaded:vector  ETV
attr source ContentManager_TotalBytesDownloaded
attr title "Total of Bytes Downloaded, vector"
attr unit B
1000	350231 7746 4263223 37943419 36010.622721365383 36061.761172109272 192 16384 3145728 303562752 6.3827508985856e+14
vector 1015  BasicTopology.peer[23].bitTorrentApp.bitTorrentClient.contentManager_26  PiecesDownloaded:vector  ETV
attr source ContentManager_PieceDownloaded
attr title "Pieces Downloaded, vector"
1015	389944 852 4274094 75355296 36010.639601124478 36136.945186974165 24 0 23 276 4324
vector 976  BasicTopology.peer[18].bitTorrentApp.bitTorrentClient.contentManager_26  TotalBytesDownloaded:vector  ETV
attr source ContentManager_TotalBytesDownloaded
attr title "Total of Bytes Downloaded, vector"
attr unit B
976	307806 7973 4343967 70153736 36010.7607202322 36122.43491043918 202 16384 3309568 335921152 7.4300384083968e+14
vector 911  BasicTopology.peer[10].bitTorrentApp.bitTorrentClient.contentManager_26  PiecesDownloaded:vector  ETV
attr source ContentManager_PieceDownloaded
attr title "Pieces Downloaded, vector"
911	188705 826 4355528 71545211 36010.78053672865 36125.267752674019 24 0 23 276 4324
vector 913  BasicTopology.peer[10].bitTorrentApp.bitTorrentClient.contentManager_26  TotalBytesUploaded:vector  ETV
attr source ContentManager_TotalBytesUploaded
attr title "Total of Bytes Uploaded, vector"
attr unit B
913	197114 7025 4381416 74770244 36010.821133358733 36133.391198529273 179 16384 2932736 263946240 5.1749792514048e+14
vector 1017  BasicTopology.peer[23].bitTorrentApp.bitTorrentClient.contentManager_26  TotalBytesUploaded:vector  ETV
attr source ContentManager_TotalBytesUploaded
attr title "Total of Bytes Uploaded, vector"
attr unit B
1017	399208 6490 4442118 77233615 36010.898366454212 36164.826459218129 161 16384 2637824 213663744 3.7690512349594e+14
vector 856  BasicTopology.peer[3].bitTorrentApp.bitTorrentClient.contentManager_26  TotalBytesDownloaded:vector  ETV
attr source ContentManager_TotalBytesDownloaded
attr title "Total of Bytes Downloaded, vector"
attr unit B
856	83710 7574 4503019 74959431 36011.021190907459 36134.99845806543 192 16384 3145728 303562752 6.3827508985856e+14
vector 983  BasicTopology.peer[19].bitTorrentApp.bitTorrentClient.contentManager_26  PiecesDownloaded:vector  ETV
attr source ContentManager_PieceDownloaded
attr title "Pieces Downloaded, vector"
983	316629 825 4506006 71725711 36011.027823569425 36125.817223688591 24 0 23 276 4324
vector 985  BasicTopology.peer[19].bitTorrentApp.bitTorrentClient.contentManager_26  TotalBytesUploaded:vector  ETV
attr source ContentManager_TotalBytesUploaded
attr title "Total of Bytes Uploaded, vector"
attr unit B
985	325348 2453 4527772 57631439 36011.054438430255 36097.094514530956 64 16384 1048576 34078720 24008867184640
vector 968  BasicTopology.peer[17].bitTorrentApp.bitTorrentClient.contentManager_26  TotalBytesDownloaded:vector  ETV
attr source ContentManager_TotalBytesDownloaded
attr title "Total of Bytes Downloaded, vector"
attr unit B
968	298690 8292 5060859 75440007 36011.870711067909 36137.61907574416 210 16384 3440640 362987520 8.3458864971776e+14
vector 951  BasicTopology.peer[15].bitTorrentApp.bitTorrentClient.contentManager_26  PiecesDownloaded:vector  ETV
attr source ContentManager_PieceDownloaded
attr title "Pieces Downloaded, vector"
951	271308 828 5196077 71043605 36012.05596986889 36124.349627089853 24 0 23 276 4324
vector 975  BasicTopology.peer[18].bitTorrentApp.bitTorrentClient.contentManager_26  PiecesDownloaded:vector  ETV
attr source ContentManager_PieceDownloaded
attr title "Pieces Downloaded, vector"
975	306982 824 5198058 70153736 36012.057795141625 36122.43491043918 24 0 23 276 4324
vector 953  BasicTopology.peer[15].bitTorrentApp.bitTorrentClient.contentManager_26  TotalBytesUploaded:vector  ETV
attr source ContentManager_TotalBytesUploaded
attr title "Total of Bytes Uploaded, vector"
attr unit B
953	280507 3754 5236404 64283008 36012.109574374376 36110.689946341925 96 16384 1572864 76283904 80406082748416
vector 919  BasicTopology.peer[11].bitTorrentApp.bitTorrentClient.contentManager_26  PiecesDownloaded:vector  ETV
attr source ContentManager_PieceDownloaded
attr title "Pieces Downloaded, vector"
919	204139 827 6020773 76122680 36013.350997205602 36151.164068915889 24 0 23 276 4324
vector 1024  BasicTopology.peer[24].bitTorrentApp.bitTorrentClient.contentManager_26  TotalBytesDownloaded:vector  ETV
attr source ContentManager_TotalBytesDownloaded
attr title "Total of Bytes Downloaded, vector"
attr unit B
1024	406551 7774 6213758 69229315 36013.65552324966 36120.533484212322 192 16384 3145728 303562752 6.3827508985856e+14
vector 967  BasicTopology.peer[17].bitTorrentApp.bitTorrentClient.contentManager_26  PiecesDownloaded:vector  ETV
attr source ContentManager_PieceDownloaded
attr title "Pieces Downloaded, vector"
967	297863 827 6383818 75440007 36013.883148213404 36137.61907574416 24 0 23 276 4324
vector 1023  BasicTopology.peer[24].bitTorrentApp.bitTorrentClient.contentManager_26  PiecesDownloaded:vector  ETV
attr source ContentManager_PieceDownloaded
attr title "Pieces Downloaded, vector"
1023	405698 853 6420816 69229315 36013.938211022069 36120.533484212322 24 0 23 276 4324
vector 863  BasicTopology.peer[4].bitTorrentApp.bitTorrentClient.contentManager_26  PiecesDownloaded:vector  ETV
attr source ContentManager_PieceDownloaded
attr title "Pieces Downloaded, vector"
863	97915 828 6577313 64131822 36014.191082024462 36110.42853130456 24 0 23 276 4324
vector 960  BasicTopology.peer[16].bitTorrentApp.bitTorrentClient.contentManager_26  TotalBytesDownloaded:vector  ETV
attr source ContentManager_TotalBytesDownloaded
attr title "Total of Bytes Downloaded, vector"
attr unit B
960	285088 7569 6650308 74553447 36014.313277877049 36132.819098798031 192 16384 3145728 303562752 6.3827508985856e+14
vector 921  BasicTopology.peer[11].bitTorrentApp.bitTorrentClient.contentManager_26  TotalBytesUploaded:vector  ETV
attr source ContentManager_TotalBytesUploaded
attr title "Total of Bytes Uploaded, vector"
attr unit B
921	212542 8879 6925840 71690787 36014.689557274838 36125.746728254285 225 16384 3686400 416563200 1.0260207108096e+15
vector 887  BasicTopology.peer[7].bitTorrentApp.bitTorrentClient.contentManager_26  PiecesDownloaded:vector  ETV
attr source ContentManager_PieceDownloaded
attr title "Pieces Downloaded, vector"
887	149783 825 6939950 76510630 36014.707057170857 36155.283040287109 24 0 23 276 4324
vector 943  BasicTopology.peer[14].bitTorrentApp.bitTorrentClient.contentManager_26  PiecesDownloaded:vector  ETV
attr source ContentManager_PieceDownloaded
attr title "Pieces Downloaded, vector"
943	259001 822 6978097 77316582 36014.761073079777 36166.062554727592 24 0 23 276 4324
vector 855  BasicTopology.peer[3].bitTorrentApp.bitTorrentClient.contentManager_26  PiecesDownloaded:vector  ETV
attr source ContentManager_PieceDownloaded
attr title "Pieces Downloaded, vector"
855	82883 827 6985850 74959431 36014.769877471893 36134.99845806543 24 0 23 276 4324
vector 999  BasicTopology.peer[21].bitTorrentApp.bitTorrentClient.contentManager_26  PiecesDownloaded:vector  ETV
attr source ContentManager_PieceDownloaded
attr title "Pieces Downloaded, vector"
999	349405 826 8200007 37943419 36016.56733205493 36061.761172109272 24 0 23 276 4324
vector 1001  BasicTopology.peer[21].bitTorrentApp.bitTorrentClient.contentManager_26  TotalBytesUploaded:vector  ETV
attr source ContentManager_TotalBytesUploaded
attr title "Total of Bytes Uploaded, vector"
attr unit B
1001	357977 13405 8236963 69174111 36016.624935802263 36120.410831499489 330 16384 5406720 894812160 3.2302194019533e+15
vector 959  BasicTopology.peer[16].bitTorrentApp.bitTorrentClient.contentManager_26  PiecesDownloaded:vector  ETV
attr source ContentManager_PieceDownloaded
attr title "Pieces Downloaded, vector"
959	284261 827 9028441 74553447 36017.861511729688 36132.819098798031 24 0 23 276 4324
vector 961  BasicTopology.peer[16].bitTorrentApp.bitTorrentClient.contentManager_26  TotalBytesUploaded:vector  ETV
attr source ContentManager_TotalBytesUploaded
attr title "Total of Bytes Uploaded, vector"
attr unit B
961	292657 5206 11124618 65410022 36021.030466051623 36113.025198481663 132 16384 2162688 143818752 2.0814216822784e+14
vector 865  BasicTopology.peer[4].bitTorrentApp.bitTorrentClient.contentManager_26  TotalBytesUploaded:vector  ETV
attr source ContentManager_TotalBytesUploaded
attr title "Total of Bytes Uploaded, vector"
attr unit B
865	106983 6952 11632740 64088261 36021.878424660765 36110.343404414023 176 16384 2883584 255197184 4.9198206130586e+14
vector 857  BasicTopology.peer[3].bitTorrentApp.bitTorrentClient.contentManager_26  TotalBytesUploaded:vector  ETV
attr source ContentManager_TotalBytesUploaded
attr title "Total of Bytes Uploaded, vector"
attr unit B
857	91284 6631 13868444 60774235 36025.103891942948 36103.603332256504 168 16384 2752512 232587264 4.280697267159e+14
vector 945  BasicTopology.peer[14].bitTorrentApp.bitTorrentClient.contentManager_26  TotalBytesUploaded:vector  ETV
attr source ContentManager_TotalBytesUploaded
attr title "Total of Bytes Uploaded, vector"
attr unit B
945	267630 3678 15067947 64274872 36026.830276517447 36110.672391002449 94 16384 1540096 73154560 75509551595520