file 430550 1593887686                                          
version 2
run Test-22-20200526-14:55:57-7212
attr configname Test
attr datetime 20200526-14:55:57
attr experiment "\"Simulation Test\""
attr inifile BasicConfig.ini
attr iterationvars ""
attr iterationvars2 $repetition=22
attr measurement "\"Peers: $peers, Rate: $rate\""
attr network BasicTopology
attr processid 7212
attr repetition 22
attr replication #22
attr resultdir results
attr runnumber 22
attr seedset 22
vector 3  BasicTopology.peer[1].bitTorrentApp.bitTorrentClient  DownloadComplete_Test:vector  ETV
attr source BitTorrentClient_DownloadComplete_Test
attr title "Descargas completas (prueba), vector"
3	21033 63 103 44676206 36001 36071.114871629799 2 36001 36071.11487163 72072.11487163 2597197329.0823
vector 5  BasicTopology.peer[2].bitTorrentApp.bitTorrentClient  DownloadComplete_Test:vector  ETV
attr source BitTorrentClient_DownloadComplete_Test
attr title "Descargas completas (prueba), vector"
5	21096 63 104 51927830 36001 36082.31378386326 2 36001 36082.313783863 72083.313783863 2598005368.9971
vector 7  BasicTopology.peer[3].bitTorrentApp.bitTorrentClient  DownloadComplete_Test:vector  ETV
attr source BitTorrentClient_DownloadComplete_Test
attr title "Descargas completas (prueba), vector"
7	21159 63 105 66519087 36001 36109.833272569927 2 36001 36109.83327257 72110.83327257 2599992059.9728
vector 9  BasicTopology.peer[4].bitTorrentApp.bitTorrentClient  DownloadComplete_Test:vector  ETV
attr source BitTorrentClient_DownloadComplete_Test
attr title "Descargas completas (prueba), vector"
9	21222 64 106 82230261 36001 36146.546393277176 2 36001 36146.546393277 72147.546393277 2602644817.1613
vector 11  BasicTopology.peer[5].bitTorrentApp.bitTorrentClient  DownloadComplete_Test:vector  ETV
attr source BitTorrentClient_DownloadComplete_Test
attr title "Descargas completas (prueba), vector"
11	21286 66 107 76237038 36001 36130.509392448481 2 36001 36130.509392448 72131.509392448 2601485709.9578
vector 13  BasicTopology.peer[6].bitTorrentApp.bitTorrentClient  DownloadComplete_Test:vector  ETV
attr source BitTorrentClient_DownloadComplete_Test
attr title "Descargas completas (prueba), vector"
13	21352 66 108 74803185 36001 36127.528956757234 2 36001 36127.528956757 72128.528956757 2601270349.5213
vector 15  BasicTopology.peer[7].bitTorrentApp.bitTorrentClient  DownloadComplete_Test:vector  ETV
attr source BitTorrentClient_DownloadComplete_Test
attr title "Descargas completas (prueba), vector"
15	21418 66 109 80815556 36001 36141.562755697236 2 36001 36141.562755697 72142.562755697 2602284559.424
vector 17  BasicTopology.peer[8].bitTorrentApp.bitTorrentClient  DownloadComplete_Test:vector  ETV
attr source BitTorrentClient_DownloadComplete_Test
attr title "Descargas completas (prueba), vector"
17	21484 66 110 78886057 36001 36137.109326166567 2 36001 36137.109326167 72138.109326167 2601962671.4513
vector 19  BasicTopology.peer[9].bitTorrentApp.bitTorrentClient  DownloadComplete_Test:vector  ETV
attr source BitTorrentClient_DownloadComplete_Test
attr title "Descargas completas (prueba), vector"
19	21550 66 111 73421012 36001 36124.627322555024 2 36001 36124.627322555 72125.627322555 2601060700.1935
vector 21  BasicTopology.peer[10].bitTorrentApp.bitTorrentClient  DownloadComplete_Test:vector  ETV
attr source BitTorrentClient_DownloadComplete_Test
attr title "Descargas completas (prueba), vector"
21	21616 66 112 76211090 36001 36130.431167652264 2 36001 36130.431167652 72131.431167652 2601480057.3604
vector 23  BasicTopology.peer[11].bitTorrentApp.bitTorrentClient  DownloadComplete_Test:vector  ETV
attr source BitTorrentClient_DownloadComplete_Test
attr title "Descargas completas (prueba), vector"
23	21682 66 113 51822657 36001 36082.143595744395 2 36001 36082.143595744 72083.143595744 2597993087.4639
vector 25  BasicTopology.peer[12].bitTorrentApp.bitTorrentClient  DownloadComplete_Test:vector  ETV
attr source BitTorrentClient_DownloadComplete_Test
attr title "Descargas completas (prueba), vector"
25	21748 66 114 82643344 36001 36150.555649825831 2 36001 36150.555649826 72151.555649826 2602934674.7912
vector 27  BasicTopology.peer[13].bitTorrentApp.bitTorrentClient  DownloadComplete_Test:vector  ETV
attr source BitTorrentClient_DownloadComplete_Test
attr title "Descargas completas (prueba), vector"
27	21814 66 115 73137797 36001 36123.982225195331 2 36001 36123.982225195 72124.982225195 2601014092.8062
vector 29  BasicTopology.peer[14].bitTorrentApp.bitTorrentClient  DownloadComplete_Test:vector  ETV
attr source BitTorrentClient_DownloadComplete_Test
attr title "Descargas completas (prueba), vector"
29	21880 66 116 78196175 36001 36135.566224025918 2 36001 36135.566224026 72136.566224026 2601851147.331
vector 31  BasicTopology.peer[15].bitTorrentApp.bitTorrentClient  DownloadComplete_Test:vector  ETV
attr source BitTorrentClient_DownloadComplete_Test
attr title "Descargas completas (prueba), vector"
31	21946 65 117 77575925 36001 36134.226009379796 2 36001 36134.22600938 72135.22600938 2601754290.297
vector 33  BasicTopology.peer[16].bitTorrentApp.bitTorrentClient  DownloadComplete_Test:vector  ETV
attr source BitTorrentClient_DownloadComplete_Test
attr title "Descargas completas (prueba), vector"
33	22011 66 118 83481273 36001 36174.709124655575 2 36001 36174.709124656 72175.709124656 2604681581.2535
vector 35  BasicTopology.peer[17].bitTorrentApp.bitTorrentClient  DownloadComplete_Test:vector  ETV
attr source BitTorrentClient_DownloadComplete_Test
attr title "Descargas completas (prueba), vector"
35	22077 66 119 83630401 36001 36180.092166754698 2 36001 36180.092166755 72181.092166755 2605071070.1949
vector 37  BasicTopology.peer[18].bitTorrentApp.bitTorrentClient  DownloadComplete_Test:vector  ETV
attr source BitTorrentClient_DownloadComplete_Test
attr title "Descargas completas (prueba), vector"
37	22143 65 120 80416288 36001 36140.74441855523 2 36001 36140.744418555 72141.744418555 2602225408.1273
vector 39  BasicTopology.peer[19].bitTorrentApp.bitTorrentClient  DownloadComplete_Test:vector  ETV
attr source BitTorrentClient_DownloadComplete_Test
attr title "Descargas completas (prueba), vector"
39	22208 66 121 81055905 36001 36142.181557273898 2 36001 36142.181557274 72143.181557274 2602329288.719
vector 41  BasicTopology.peer[20].bitTorrentApp.bitTorrentClient  DownloadComplete_Test:vector  ETV
attr source BitTorrentClient_DownloadComplete_Test
attr title "Descargas completas (prueba), vector"
41	22274 66 122 68733675 36001 36114.497143545413 2 36001 36114.497143545 72115.497143545 2600328904.9311
vector 43  BasicTopology.peer[21].bitTorrentApp.bitTorrentClient  DownloadComplete_Test:vector  ETV
attr source BitTorrentClient_DownloadComplete_Test
attr title "Descargas completas (prueba), vector"
43	22340 66 123 62178800 36001 36100.816333397575 2 36001 36100.816333398 72101.816333398 2599340940.9377
vector 45  BasicTopology.peer[22].bitTorrentApp.bitTorrentClient  DownloadComplete_Test:vector  ETV
attr source BitTorrentClient_DownloadComplete_Test
attr title "Descargas completas (prueba), vector"
45	22406 66 124 83930987 36001 36182.840018652699 2 36001 36182.840018653 72183.840018653 2605269912.8154
vector 47  BasicTopology.peer[23].bitTorrentApp.bitTorrentClient  DownloadComplete_Test:vector  ETV
attr source BitTorrentClient_DownloadComplete_Test
attr title "Descargas completas (prueba), vector"
47	22472 66 125 61932782 36001 36100.363465295791 2 36001 36100.363465296 72101.363465296 2599308243.3265
vector 49  BasicTopology.peer[24].bitTorrentApp.bitTorrentClient  DownloadComplete_Test:vector  ETV
attr source BitTorrentClient_DownloadComplete_Test
attr title "Descargas completas (prueba), vector"
49	22538 66 126 71021461 36001 36119.582364421085 2 36001 36119.582364421 72120.582364421 2600696231.1802
vector 833  BasicTopology.peer[0].bitTorrentApp.bitTorrentClient.contentManager_26  TotalBytesUploaded:vector  ETV
attr source ContentManager_TotalBytesUploaded
attr title "Total of Bytes Uploaded, vector"
attr unit B
833	22604 15865 110036 58166696 36001.078812436004 36093.004896009325 405 16384 6635520 1347010560 5.9661001477325e+15
vector 840  BasicTopology.peer[1].bitTorrentApp.bitTorrentClient.contentManager_26  TotalBytesDownloaded:vector  ETV
attr source ContentManager_TotalBytesDownloaded
attr title "Total of Bytes Downloaded, vector"
attr unit B
840	39288 7521 120649 44676206 36001.088867380654 36071.114871629799 192 16384 3145728 303562752 6.3827508985856e+14
vector 839  BasicTopology.peer[1].bitTorrentApp.bitTorrentClient.contentManager_26  PiecesDownloaded:vector  ETV
attr source ContentManager_PieceDownloaded
attr title "Pieces Downloaded, vector"
839	38469 819 715408 44676206 36004.241389407456 36071.114871629799 24 0 23 276 4324
vector 841  BasicTopology.peer[1].bitTorrentApp.bitTorrentClient.contentManager_26  TotalBytesUploaded:vector  ETV
attr source ContentManager_TotalBytesUploaded
attr title "Total of Bytes Uploaded, vector"
attr unit B
841	46809 16444 735965 72893749 36004.280701542189 36123.442147094358 419 16384 6864896 1441628160 6.6056248046387e+15
vector 920  BasicTopology.peer[11].bitTorrentApp.bitTorrentClient.contentManager_26  TotalBytesDownloaded:vector  ETV
attr source ContentManager_TotalBytesDownloaded
attr title "Total of Bytes Downloaded, vector"
attr unit B
920	206200 7760 1014639 64668727 36005.543471163441 36105.814568202092 197 16384 3227648 319537152 6.8931406528512e+14
vector 848  BasicTopology.peer[2].bitTorrentApp.bitTorrentClient.contentManager_26  TotalBytesDownloaded:vector  ETV
attr source ContentManager_TotalBytesDownloaded
attr title "Total of Bytes Downloaded, vector"
attr unit B
848	64076 7561 1074807 51927830 36005.721278338789 36082.31378386326 192 16384 3145728 303562752 6.3827508985856e+14
vector 872  BasicTopology.peer[5].bitTorrentApp.bitTorrentClient.contentManager_26  TotalBytesDownloaded:vector  ETV
attr source ContentManager_TotalBytesDownloaded
attr title "Total of Bytes Downloaded, vector"
attr unit B
872	113909 7873 1101721 76237038 36005.795345314328 36130.509392448481 200 16384 3276800 329318400 7.212055396352e+14
vector 888  BasicTopology.peer[7].bitTorrentApp.bitTorrentClient.contentManager_26  TotalBytesDownloaded:vector  ETV
attr source ContentManager_TotalBytesDownloaded
attr title "Total of Bytes Downloaded, vector"
attr unit B
888	145311 7562 1133868 80815556 36005.872044598719 36141.562755697236 192 16384 3145728 303562752 6.3827508985856e+14
vector 847  BasicTopology.peer[2].bitTorrentApp.bitTorrentClient.contentManager_26  PiecesDownloaded:vector  ETV
attr source ContentManager_PieceDownloaded
attr title "Pieces Downloaded, vector"
847	63253 823 1155897 51927830 36005.929052968744 36082.31378386326 24 0 23 276 4324
vector 849  BasicTopology.peer[2].bitTorrentApp.bitTorrentClient.contentManager_26  TotalBytesUploaded:vector  ETV
attr source ContentManager_TotalBytesUploaded
attr title "Total of Bytes Uploaded, vector"
attr unit B
849	71637 8696 1163083 65334157 36005.939695610985 36107.140426007314 222 16384 3637248 405553152 9.8561312161792e+14
vector 936  BasicTopology.peer[13].bitTorrentApp.bitTorrentClient.contentManager_26  TotalBytesDownloaded:vector  ETV
attr source ContentManager_TotalBytesDownloaded
attr title "Total of Bytes Downloaded, vector"
attr unit B
936	235986 7817 1204678 73137797 36006.044465990559 36123.982225195331 198 16384 3244032 322781184 6.9983780890214e+14
vector 880  BasicTopology.peer[6].bitTorrentApp.bitTorrentClient.contentManager_26  TotalBytesDownloaded:vector  ETV
attr source ContentManager_TotalBytesDownloaded
attr title "Total of Bytes Downloaded, vector"
attr unit B
880	130224 7960 1250637 75570149 36006.168153050901 36129.130032199526 202 16384 3309568 335921152 7.4300384083968e+14
vector 1000  BasicTopology.peer[21].bitTorrentApp.bitTorrentClient.contentManager_26  TotalBytesDownloaded:vector  ETV
attr source ContentManager_TotalBytesDownloaded
attr title "Total of Bytes Downloaded, vector"
attr unit B
1000	350746 7711 1278602 62178800 36006.213448502647 36100.816333397575 192 16384 3145728 303562752 6.3827508985856e+14
vector 999  BasicTopology.peer[21].bitTorrentApp.bitTorrentClient.contentManager_26  PiecesDownloaded:vector  ETV
attr source ContentManager_PieceDownloaded
attr title "Pieces Downloaded, vector"
999	349927 819 1381314 62178800 36006.446367072589 36100.816333397575 24 0 23 276 4324
vector 1001  BasicTopology.peer[21].bitTorrentApp.bitTorrentClient.contentManager_26  TotalBytesUploaded:vector  ETV
attr source ContentManager_TotalBytesUploaded
attr title "Total of Bytes Uploaded, vector"
attr unit B
1001	358457 21365 1434072 79381392 36006.583432960632 36138.076932243814 527 16384 8634368 2279473152 1.3133655656366e+16
vector 919  BasicTopology.peer[11].bitTorrentApp.bitTorrentClient.contentManager_26  PiecesDownloaded:vector  ETV
attr source ContentManager_PieceDownloaded
attr title "Pieces Downloaded, vector"
919	205377 823 1475813 51822657 36006.688493711656 36082.143595744395 24 0 23 276 4324
vector 921  BasicTopology.peer[11].bitTorrentApp.bitTorrentClient.contentManager_26  TotalBytesUploaded:vector  ETV
attr source ContentManager_TotalBytesUploaded
attr title "Total of Bytes Uploaded, vector"
attr unit B
921	213960 11238 1508367 57817474 36006.751132805328 36092.332343720268 285 16384 4669440 667729920 2.082263227433e+15
vector 912  BasicTopology.peer[10].bitTorrentApp.bitTorrentClient.contentManager_26  TotalBytesDownloaded:vector  ETV
attr source ContentManager_TotalBytesDownloaded
attr title "Total of Bytes Downloaded, vector"
attr unit B
912	186158 7881 1545652 76211090 36006.853132859686 36130.431167652264 200 16384 3276800 329318400 7.212055396352e+14
vector 952  BasicTopology.peer[15].bitTorrentApp.bitTorrentClient.contentManager_26  TotalBytesDownloaded:vector  ETV
attr source ContentManager_TotalBytesDownloaded
attr title "Total of Bytes Downloaded, vector"
attr unit B
952	262497 8687 1743106 77575925 36007.297360051823 36134.226009379796 220 16384 3604480 398295040 9.5927289249792e+14
vector 856  BasicTopology.peer[3].bitTorrentApp.bitTorrentClient.contentManager_26  TotalBytesDownloaded:vector  ETV
attr source ContentManager_TotalBytesDownloaded
attr title "Total of Bytes Downloaded, vector"
attr unit B
856	81159 7561 1781013 66519087 36007.39531068452 36109.833272569927 192 16384 3145728 303562752 6.3827508985856e+14
vector 871  BasicTopology.peer[5].bitTorrentApp.bitTorrentClient.contentManager_26  PiecesDownloaded:vector  ETV
attr source ContentManager_PieceDownloaded
attr title "Pieces Downloaded, vector"
871	113086 823 1811193 76237038 36007.478848163378 36130.509392448481 24 0 23 276 4324
vector 873  BasicTopology.peer[5].bitTorrentApp.bitTorrentClient.contentManager_26  TotalBytesUploaded:vector  ETV
attr source ContentManager_TotalBytesUploaded
attr title "Total of Bytes Uploaded, vector"
attr unit B
873	121782 7618 1825785 46154712 36007.503103473493 36073.304271806592 195 16384 3194880 313098240 6.6858413719552e+14
vector 864  BasicTopology.peer[4].bitTorrentApp.bitTorrentClient.contentManager_26  TotalBytesDownloaded:vector  ETV
attr source ContentManager_TotalBytesDownloaded
attr title "Total of Bytes Downloaded, vector"
attr unit B
864	100893 7764 1969867 82230261 36007.866226007307 36146.546393277176 197 16384 3227648 319537152 6.8931406528512e+14
vector 887  BasicTopology.peer[7].bitTorrentApp.bitTorrentClient.contentManager_26  PiecesDownloaded:vector  ETV
attr source ContentManager_PieceDownloaded
attr title "Pieces Downloaded, vector"
887	144489 822 2380172 80815556 36008.708925703814 36141.562755697236 24 0 23 276 4324
vector 889  BasicTopology.peer[7].bitTorrentApp.bitTorrentClient.contentManager_26  TotalBytesUploaded:vector  ETV
attr source ContentManager_TotalBytesUploaded
attr title "Total of Bytes Uploaded, vector"
attr unit B
889	152873 4517 2393573 82724240 36008.728972280245 36153.80481389856 116 16384 1900544 111181824 1.4147783334298e+14
vector 960  BasicTopology.peer[16].bitTorrentApp.bitTorrentClient.contentManager_26  TotalBytesDownloaded:vector  ETV
attr source ContentManager_TotalBytesDownloaded
attr title "Total of Bytes Downloaded, vector"
attr unit B
960	283026 7737 2402947 83481273 36008.74890252562 36174.709124655575 196 16384 3211264 316309504 6.7889635367322e+14
vector 984  BasicTopology.peer[19].bitTorrentApp.bitTorrentClient.contentManager_26  TotalBytesDownloaded:vector  ETV
attr source ContentManager_TotalBytesDownloaded
attr title "Total of Bytes Downloaded, vector"
attr unit B
984	320621 8092 2408555 81055905 36008.759040471981 36142.181557273898 205 16384 3358720 345948160 7.7651800752128e+14
vector 896  BasicTopology.peer[8].bitTorrentApp.bitTorrentClient.contentManager_26  TotalBytesDownloaded:vector  ETV
attr source ContentManager_TotalBytesDownloaded
attr title "Total of Bytes Downloaded, vector"
attr unit B
896	158217 7570 2524358 78886057 36008.941625388779 36137.109326166567 192 16384 3145728 303562752 6.3827508985856e+14
vector 895  BasicTopology.peer[8].bitTorrentApp.bitTorrentClient.contentManager_26  PiecesDownloaded:vector  ETV
attr source ContentManager_PieceDownloaded
attr title "Pieces Downloaded, vector"
895	157390 827 2744845 78886057 36009.270614319076 36137.109326166567 24 0 23 276 4324
vector 897  BasicTopology.peer[8].bitTorrentApp.bitTorrentClient.contentManager_26  TotalBytesUploaded:vector  ETV
attr source ContentManager_TotalBytesUploaded
attr title "Total of Bytes Uploaded, vector"
attr unit B
897	165787 6845 2756251 75840677 36009.282491469172 36129.715810334836 174 16384 2850816 249446400 4.754461687808e+14
vector 976  BasicTopology.peer[18].bitTorrentApp.bitTorrentClient.contentManager_26  TotalBytesDownloaded:vector  ETV
attr source ContentManager_TotalBytesDownloaded
attr title "Total of Bytes Downloaded, vector"
attr unit B
976	305245 12074 2781384 82540410 36009.317648915952 36147.739234962499 305 16384 4997120 764559360 2.5512387595469e+15
vector 983  BasicTopology.peer[19].bitTorrentApp.bitTorrentClient.contentManager_26  PiecesDownloaded:vector  ETV
attr source ContentManager_PieceDownloaded
attr title "Pieces Downloaded, vector"
983	319795 826 3068597 81055905 36009.969421475763 36142.181557273898 24 0 23 276 4324
vector 1024  BasicTopology.peer[24].bitTorrentApp.bitTorrentClient.contentManager_26  TotalBytesDownloaded:vector  ETV
attr source ContentManager_TotalBytesDownloaded
attr title "Total of Bytes Downloaded, vector"
attr unit B
1024	415403 8177 3261579 71021461 36010.18142970813 36119.582364421085 202 16384 3309568 335921152 7.4300384083968e+14
vector 968  BasicTopology.peer[17].bitTorrentApp.bitTorrentClient.contentManager_26  TotalBytesDownloaded:vector  ETV
attr source ContentManager_TotalBytesDownloaded
attr title "Total of Bytes Downloaded, vector"
attr unit B
968	293296 8683 3314278 83630401 36010.251245450263 36180.092166754698 220 16384 3604480 398295040 9.5927289249792e+14
vector 967  BasicTopology.peer[17].bitTorrentApp.bitTorrentClient.contentManager_26  PiecesDownloaded:vector  ETV
attr source ContentManager_PieceDownloaded
attr title "Pieces Downloaded, vector"
967	292470 826 3478501 83630401 36010.506882702289 36180.092166754698 24 0 23 276 4324
vector 975  BasicTopology.peer[18].bitTorrentApp.bitTorrentClient.contentManager_26  PiecesDownloaded:vector  ETV
attr source ContentManager_PieceDownloaded
attr title "Pieces Downloaded, vector"
975	304421 824 3530435 80416288 36010.574084226223 36140.74441855523 24 0 23 276 4324
vector 935  BasicTopology.peer[13].bitTorrentApp.bitTorrentClient.contentManager_26  PiecesDownloaded:vector  ETV
attr source ContentManager_PieceDownloaded
attr title "Pieces Downloaded, vector"
935	235161 825 3547233 73137797 36010.593550158694 36123.982225195331 24 0 23 276 4324
vector 977  BasicTopology.peer[18].bitTorrentApp.bitTorrentClient.contentManager_26  TotalBytesUploaded:vector  ETV
attr source ContentManager_TotalBytesUploaded
attr title "Total of Bytes Uploaded, vector"
attr unit B
977	317319 2476 3574111 46438725 36010.628029078847 36073.708261461224 64 16384 1048576 34078720 24008867184640
vector 944  BasicTopology.peer[14].bitTorrentApp.bitTorrentClient.contentManager_26  TotalBytesDownloaded:vector  ETV
attr source ContentManager_TotalBytesDownloaded
attr title "Total of Bytes Downloaded, vector"
attr unit B
944	248557 7570 3630890 78196175 36010.705078793389 36135.566224025918 192 16384 3145728 303562752 6.3827508985856e+14
vector 943  BasicTopology.peer[14].bitTorrentApp.bitTorrentClient.contentManager_26  PiecesDownloaded:vector  ETV
attr source ContentManager_PieceDownloaded
attr title "Pieces Downloaded, vector"
943	247731 826 3839172 78196175 36011.060385882184 36135.566224025918 24 0 23 276 4324
vector 1008  BasicTopology.peer[22].bitTorrentApp.bitTorrentClient.contentManager_26  TotalBytesDownloaded:vector  ETV
attr source ContentManager_TotalBytesDownloaded
attr title "Total of Bytes Downloaded, vector"
attr unit B
1008	380670 8950 3882329 83930987 36011.15893104734 36182.840018652699 221 16384 3620864 401915904 9.7238354860442e+14
vector 951  BasicTopology.peer[15].bitTorrentApp.bitTorrentClient.contentManager_26  PiecesDownloaded:vector  ETV
attr source ContentManager_PieceDownloaded
attr title "Pieces Downloaded, vector"
951	261674 823 4255886 77575925 36011.96475866519 36134.226009379796 24 0 23 276 4324
vector 1016  BasicTopology.peer[23].bitTorrentApp.bitTorrentClient.contentManager_26  TotalBytesDownloaded:vector  ETV
attr source ContentManager_TotalBytesDownloaded
attr title "Total of Bytes Downloaded, vector"
attr unit B
1016	398234 7754 4315611 61932782 36012.058373985386 36100.363465295791 192 16384 3145728 303562752 6.3827508985856e+14
vector 937  BasicTopology.peer[13].bitTorrentApp.bitTorrentClient.contentManager_26  TotalBytesUploaded:vector  ETV
attr source ContentManager_TotalBytesUploaded
attr title "Total of Bytes Uploaded, vector"
attr unit B
937	243803 3928 4335493 70230535 36012.104722078622 36117.782160644874 101 16384 1654784 84393984 93563446624256
vector 904  BasicTopology.peer[9].bitTorrentApp.bitTorrentClient.contentManager_26  TotalBytesDownloaded:vector  ETV
attr source ContentManager_TotalBytesDownloaded
attr title "Total of Bytes Downloaded, vector"
attr unit B
904	173456 7893 4469022 73421012 36012.297903711536 36124.627322555024 200 16384 3276800 329318400 7.212055396352e+14
vector 928  BasicTopology.peer[12].bitTorrentApp.bitTorrentClient.contentManager_26  TotalBytesDownloaded:vector  ETV
attr source ContentManager_TotalBytesDownloaded
attr title "Total of Bytes Downloaded, vector"
attr unit B
928	226026 7583 4606576 82643344 36012.515452521805 36150.555649825831 192 16384 3145728 303562752 6.3827508985856e+14
vector 911  BasicTopology.peer[10].bitTorrentApp.bitTorrentClient.contentManager_26  PiecesDownloaded:vector  ETV
attr source ContentManager_PieceDownloaded
attr title "Pieces Downloaded, vector"
911	185334 824 4629353 76211090 36012.56345900251 36130.431167652264 24 0 23 276 4324
vector 913  BasicTopology.peer[10].bitTorrentApp.bitTorrentClient.contentManager_26  TotalBytesUploaded:vector  ETV
attr source ContentManager_TotalBytesUploaded
attr title "Total of Bytes Uploaded, vector"
attr unit B
913	194039 11338 4665917 75042106 36012.620974414191 36128.004931338301 287 16384 4702208 677117952 2.1263309340672e+15
vector 992  BasicTopology.peer[20].bitTorrentApp.bitTorrentClient.contentManager_26  TotalBytesDownloaded:vector  ETV
attr source ContentManager_TotalBytesDownloaded
attr title "Total of Bytes Downloaded, vector"
attr unit B
992	332022 7557 4714667 68733675 36012.699549689286 36114.497143545413 192 16384 3145728 303562752 6.3827508985856e+14
vector 959  BasicTopology.peer[16].bitTorrentApp.bitTorrentClient.contentManager_26  PiecesDownloaded:vector  ETV
attr source ContentManager_PieceDownloaded
attr title "Pieces Downloaded, vector"
959	282197 829 4764465 83481273 36012.781122927246 36174.709124655575 24 0 23 276 4324
vector 953  BasicTopology.peer[15].bitTorrentApp.bitTorrentClient.contentManager_26  TotalBytesUploaded:vector  ETV
attr source ContentManager_TotalBytesUploaded
attr title "Total of Bytes Uploaded, vector"
attr unit B
953	271184 11013 4857589 53650845 36012.95467279425 36085.118429569643 279 16384 4571136 639959040 1.9537215671501e+15
vector 945  BasicTopology.peer[14].bitTorrentApp.bitTorrentClient.contentManager_26  TotalBytesUploaded:vector  ETV
attr source ContentManager_TotalBytesUploaded
attr title "Total of Bytes Uploaded, vector"
attr unit B
945	256127 5547 5416413 64195706 36013.770335687775 36104.837626377091 142 16384 2326528 166346752 2.5891539255296e+14
vector 879  BasicTopology.peer[6].bitTorrentApp.bitTorrentClient.contentManager_26  PiecesDownloaded:vector  ETV
attr source ContentManager_PieceDownloaded
attr title "Pieces Downloaded, vector"
879	129400 824 5472526 74803185 36013.849001174489 36127.528956757234 24 0 23 276 4324
vector 1007  BasicTopology.peer[22].bitTorrentApp.bitTorrentClient.contentManager_26  PiecesDownloaded:vector  ETV
attr source ContentManager_PieceDownloaded
attr title "Pieces Downloaded, vector"
1007	379822 848 5497584 83930987 36013.895518938617 36182.840018652699 24 0 23 276 4324
vector 991  BasicTopology.peer[20].bitTorrentApp.bitTorrentClient.contentManager_26  PiecesDownloaded:vector  ETV
attr source ContentManager_PieceDownloaded
attr title "Pieces Downloaded, vector"
991	331200 822 5588474 68733675 36014.110784320035 36114.497143545413 24 0 23 276 4324
vector 993  BasicTopology.peer[20].bitTorrentApp.bitTorrentClient.contentManager_26  TotalBytesUploaded:vector  ETV
attr source ContentManager_TotalBytesUploaded
attr title "Total of Bytes Uploaded, vector"
attr unit B
993	339579 10348 5608348 80081597 36014.140274895041 36139.956290473753 262 16384 4292608 564477952 1.6184711839744e+15
vector 863  BasicTopology.peer[4].bitTorrentApp.bitTorrentClient.contentManager_26  PiecesDownloaded:vector  ETV
attr source ContentManager_PieceDownloaded
attr title "Pieces Downloaded, vector"
863	100067 826 6034596 82230261 36014.766891500564 36146.546393277176 24 0 23 276 4324
vector 865  BasicTopology.peer[4].bitTorrentApp.bitTorrentClient.contentManager_26  TotalBytesUploaded:vector  ETV
attr source ContentManager_TotalBytesUploaded
attr title "Total of Bytes Uploaded, vector"
attr unit B
865	108657 4429 6143878 82581222 36014.922290112598 36150.356284558581 113 16384 1851392 105529344 1.3082711975526e+14
vector 903  BasicTopology.peer[9].bitTorrentApp.bitTorrentClient.contentManager_26  PiecesDownloaded:vector  ETV
attr source ContentManager_PieceDownloaded
attr title "Pieces Downloaded, vector"
903	172632 824 6796417 73421012 36015.869424382459 36124.627322555024 24 0 23 276 4324
vector 1009  BasicTopology.peer[22].bitTorrentApp.bitTorrentClient.contentManager_26  TotalBytesUploaded:vector  ETV
attr source ContentManager_TotalBytesUploaded
attr title "Total of Bytes Uploaded, vector"
attr unit B
1009	389620 7764 7213003 68072910 36016.552055038639 36113.126950348772 192 16384 3145728 303562752 6.3827508985856e+14
vector 969  BasicTopology.peer[17].bitTorrentApp.bitTorrentClient.contentManager_26  TotalBytesUploaded:vector  ETV
attr source ContentManager_TotalBytesUploaded
attr title "Total of Bytes Uploaded, vector"
attr unit B
969	301979 2442 7673891 72789976 36017.191526762574 36123.189580473203 63 16384 1032192 33030144 22909355556864
vector 1015  BasicTopology.peer[23].bitTorrentApp.bitTorrentClient.contentManager_26  PiecesDownloaded:vector  ETV
attr source ContentManager_PieceDownloaded
attr title "Pieces Downloaded, vector"
1015	397384 850 7753209 61932782 36017.305521692834 36100.363465295791 24 0 23 276 4324
vector 905  BasicTopology.peer[9].bitTorrentApp.bitTorrentClient.contentManager_26  TotalBytesUploaded:vector  ETV
attr source ContentManager_TotalBytesUploaded
attr title "Total of Bytes Uploaded, vector"
attr unit B
905	181349 3985 7755364 62434625 36017.309536862181 36101.349625900299 103 16384 1687552 87752704 99204080861184
vector 1017  BasicTopology.peer[23].bitTorrentApp.bitTorrentClient.contentManager_26  TotalBytesUploaded:vector  ETV
attr source ContentManager_TotalBytesUploaded
attr title "Total of Bytes Uploaded, vector"
attr unit B
1017	405988 8566 7784432 82124138 36017.345019705659 36146.233958464705 212 16384 3473408 369917952 8.586042277888e+14
vector 881  BasicTopology.peer[6].bitTorrentApp.bitTorrentClient.contentManager_26  TotalBytesUploaded:vector  ETV
attr source ContentManager_TotalBytesUploaded
attr title "Total of Bytes Uploaded, vector"
attr unit B
881	138184 6305 8331648 74251151 36018.26390679006 36126.411638952451 160 16384 2621440 211025920 3.6994700804096e+14
vector 855  BasicTopology.peer[3].bitTorrentApp.bitTorrentClient.contentManager_26  PiecesDownloaded:vector  ETV
attr source ContentManager_PieceDownloaded
attr title "Pieces Downloaded, vector"
855	80333 826 9091519 66519087 36019.253827758795 36109.833272569927 24 0 23 276 4324
vector 1023  BasicTopology.peer[24].bitTorrentApp.bitTorrentClient.contentManager_26  PiecesDownloaded:vector  ETV
attr source ContentManager_PieceDownloaded
attr title "Pieces Downloaded, vector"
1023	414554 849 10802441 71021461 36021.703555614931 36119.582364421085 24 0 23 276 4324
vector 1025  BasicTopology.peer[24].bitTorrentApp.bitTorrentClient.contentManager_26  TotalBytesUploaded:vector  ETV
attr source ContentManager_TotalBytesUploaded
attr title "Total of Bytes Uploaded, vector"
attr unit B
1025	423580 6970 12809295 65600706 36024.589830776037 36107.715309002465 172 16384 2818048 243761152 4.5928501215232e+14
vector 927  BasicTopology.peer[12].bitTorrentApp.bitTorrentClient.contentManager_26  PiecesDownloaded:vector  ETV
attr source ContentManager_PieceDownloaded
attr title "Pieces Downloaded, vector"
927	225198 828 14772062 82643344 36027.396551932777 36150.555649825831 24 0 23 276 4324