file 431499 1593887686                                          
version 2
run Test-9-20200526-14:53:37-7080
attr configname Test
attr datetime 20200526-14:53:37
attr experiment "\"Simulation Test\""
attr inifile BasicConfig.ini
attr iterationvars ""
attr iterationvars2 $repetition=9
attr measurement "\"Peers: $peers, Rate: $rate\""
attr network BasicTopology
attr processid 7080
attr repetition 9
attr replication #9
attr resultdir results
attr runnumber 9
attr seedset 9
vector 3  BasicTopology.peer[1].bitTorrentApp.bitTorrentClient  DownloadComplete_Test:vector  ETV
attr source BitTorrentClient_DownloadComplete_Test
attr title "Descargas completas (prueba), vector"
3	21027 64 103 67527637 36001 36114.276575809481 2 36001 36114.276575809 72115.276575809 2600312973.594
vector 5  BasicTopology.peer[2].bitTorrentApp.bitTorrentClient  DownloadComplete_Test:vector  ETV
attr source BitTorrentClient_DownloadComplete_Test
attr title "Descargas completas (prueba), vector"
5	21091 64 104 53406326 36001 36086.602861025979 2 36001 36086.602861026 72087.602861026 2598314907.0494
vector 7  BasicTopology.peer[3].bitTorrentApp.bitTorrentClient  DownloadComplete_Test:vector  ETV
attr source BitTorrentClient_DownloadComplete_Test
attr title "Descargas completas (prueba), vector"
7	21155 64 105 57699272 36001 36094.970523580627 2 36001 36094.970523581 72095.970523581 2598918898.0982
vector 9  BasicTopology.peer[4].bitTorrentApp.bitTorrentClient  DownloadComplete_Test:vector  ETV
attr source BitTorrentClient_DownloadComplete_Test
attr title "Descargas completas (prueba), vector"
9	21219 64 106 74664717 36001 36131.411170059381 2 36001 36131.411170059 72132.411170059 2601550874.1399
vector 11  BasicTopology.peer[5].bitTorrentApp.bitTorrentClient  DownloadComplete_Test:vector  ETV
attr source BitTorrentClient_DownloadComplete_Test
attr title "Descargas completas (prueba), vector"
11	21283 66 107 79976441 36001 36149.468841359391 2 36001 36149.468841359 72150.468841359 2602856098.5124
vector 13  BasicTopology.peer[6].bitTorrentApp.bitTorrentClient  DownloadComplete_Test:vector  ETV
attr source BitTorrentClient_DownloadComplete_Test
attr title "Descargas completas (prueba), vector"
13	21349 66 108 73936874 36001 36129.491623321019 2 36001 36129.491623321 72130.491623321 2601412165.9596
vector 15  BasicTopology.peer[7].bitTorrentApp.bitTorrentClient  DownloadComplete_Test:vector  ETV
attr source BitTorrentClient_DownloadComplete_Test
attr title "Descargas completas (prueba), vector"
15	21415 66 109 76282625 36001 36136.412605901243 2 36001 36136.412605901 72137.412605901 2601912317.0239
vector 17  BasicTopology.peer[8].bitTorrentApp.bitTorrentClient  DownloadComplete_Test:vector  ETV
attr source BitTorrentClient_DownloadComplete_Test
attr title "Descargas completas (prueba), vector"
17	21481 66 110 77469436 36001 36139.556648155895 2 36001 36139.556648156 72140.556648156 2602139555.7253
vector 19  BasicTopology.peer[9].bitTorrentApp.bitTorrentClient  DownloadComplete_Test:vector  ETV
attr source BitTorrentClient_DownloadComplete_Test
attr title "Descargas completas (prueba), vector"
19	21547 66 111 82586715 36001 36159.923596207509 2 36001 36159.923596208 72160.923596208 2603612075.4836
vector 21  BasicTopology.peer[10].bitTorrentApp.bitTorrentClient  DownloadComplete_Test:vector  ETV
attr source BitTorrentClient_DownloadComplete_Test
attr title "Descargas completas (prueba), vector"
21	21613 66 112 79327774 36001 36145.815185452755 2 36001 36145.815185453 72146.815185453 2602591956.4209
vector 23  BasicTopology.peer[11].bitTorrentApp.bitTorrentClient  DownloadComplete_Test:vector  ETV
attr source BitTorrentClient_DownloadComplete_Test
attr title "Descargas completas (prueba), vector"
23	21679 66 113 82370664 36001 36158.670991278129 2 36001 36158.670991278 72159.670991278 2603521488.8555
vector 25  BasicTopology.peer[12].bitTorrentApp.bitTorrentClient  DownloadComplete_Test:vector  ETV
attr source BitTorrentClient_DownloadComplete_Test
attr title "Descargas completas (prueba), vector"
25	21745 65 114 77525343 36001 36139.710857709922 2 36001 36139.71085771 72140.71085771 2602150701.8789
vector 27  BasicTopology.peer[13].bitTorrentApp.bitTorrentClient  DownloadComplete_Test:vector  ETV
attr source BitTorrentClient_DownloadComplete_Test
attr title "Descargas completas (prueba), vector"
27	21810 66 115 81600116 36001 36155.286760498053 2 36001 36155.286760498 72156.286760498 2603276761.7338
vector 29  BasicTopology.peer[14].bitTorrentApp.bitTorrentClient  DownloadComplete_Test:vector  ETV
attr source BitTorrentClient_DownloadComplete_Test
attr title "Descargas completas (prueba), vector"
29	21876 64 116 81055294 36001 36153.0766371767 2 36001 36153.076637177 72154.076637177 2603116951.3336
vector 31  BasicTopology.peer[15].bitTorrentApp.bitTorrentClient  DownloadComplete_Test:vector  ETV
attr source BitTorrentClient_DownloadComplete_Test
attr title "Descargas completas (prueba), vector"
31	21940 65 117 77976379 36001 36141.67309282165 2 36001 36141.673092822 72142.673092822 2602292534.9484
vector 33  BasicTopology.peer[16].bitTorrentApp.bitTorrentClient  DownloadComplete_Test:vector  ETV
attr source BitTorrentClient_DownloadComplete_Test
attr title "Descargas completas (prueba), vector"
33	22005 66 118 79772479 36001 36148.961038301459 2 36001 36148.961038301 72149.961038301 2602819385.1486
vector 35  BasicTopology.peer[17].bitTorrentApp.bitTorrentClient  DownloadComplete_Test:vector  ETV
attr source BitTorrentClient_DownloadComplete_Test
attr title "Descargas completas (prueba), vector"
35	22071 66 119 83463153 36001 36168.313277293872 2 36001 36168.313277294 72169.313277294 2604218886.3245
vector 37  BasicTopology.peer[18].bitTorrentApp.bitTorrentClient  DownloadComplete_Test:vector  ETV
attr source BitTorrentClient_DownloadComplete_Test
attr title "Descargas completas (prueba), vector"
37	22137 66 120 76627772 36001 36137.149540737679 2 36001 36137.149540738 72138.149540738 2601965577.9297
vector 39  BasicTopology.peer[19].bitTorrentApp.bitTorrentClient  DownloadComplete_Test:vector  ETV
attr source BitTorrentClient_DownloadComplete_Test
attr title "Descargas completas (prueba), vector"
39	22203 66 121 82280514 36001 36158.422489495307 2 36001 36158.422489495 72159.422489495 2603503517.9288
vector 41  BasicTopology.peer[20].bitTorrentApp.bitTorrentClient  DownloadComplete_Test:vector  ETV
attr source BitTorrentClient_DownloadComplete_Test
attr title "Descargas completas (prueba), vector"
41	22269 66 122 80864385 36001 36152.760598942861 2 36001 36152.760598943 72153.760598943 2603094099.9245
vector 43  BasicTopology.peer[21].bitTorrentApp.bitTorrentClient  DownloadComplete_Test:vector  ETV
attr source BitTorrentClient_DownloadComplete_Test
attr title "Descargas completas (prueba), vector"
43	22335 66 123 60446297 36001 36100.186279415785 2 36001 36100.186279416 72101.186279416 2599295450.4085
vector 45  BasicTopology.peer[22].bitTorrentApp.bitTorrentClient  DownloadComplete_Test:vector  ETV
attr source BitTorrentClient_DownloadComplete_Test
attr title "Descargas completas (prueba), vector"
45	22401 65 124 81351609 36001 36154.14750746521 2 36001 36154.147507465 72155.147507465 2603194382.9915
vector 47  BasicTopology.peer[23].bitTorrentApp.bitTorrentClient  DownloadComplete_Test:vector  ETV
attr source BitTorrentClient_DownloadComplete_Test
attr title "Descargas completas (prueba), vector"
47	22466 66 125 63843108 36001 36106.918330926392 2 36001 36106.918330926 72107.918330926 2599781552.3562
vector 49  BasicTopology.peer[24].bitTorrentApp.bitTorrentClient  DownloadComplete_Test:vector  ETV
attr source BitTorrentClient_DownloadComplete_Test
attr title "Descargas completas (prueba), vector"
49	22532 66 126 68183871 36001 36115.583085188807 2 36001 36115.583085189 72116.583085189 2600407342.5832
vector 833  BasicTopology.peer[0].bitTorrentApp.bitTorrentClient.contentManager_26  TotalBytesUploaded:vector  ETV
attr source ContentManager_TotalBytesUploaded
attr title "Total of Bytes Uploaded, vector"
attr unit B
833	22598 14340 365561 74886481 36002.073722453914 36132.44148283523 366 16384 5996544 1100365824 4.404937517695e+15
vector 1000  BasicTopology.peer[21].bitTorrentApp.bitTorrentClient.contentManager_26  TotalBytesDownloaded:vector  ETV
attr source ContentManager_TotalBytesDownloaded
attr title "Total of Bytes Downloaded, vector"
attr unit B
1000	355352 8062 376310 60446297 36002.110380498076 36100.186279415785 200 16384 3276800 329318400 7.212055396352e+14
vector 976  BasicTopology.peer[18].bitTorrentApp.bitTorrentClient.contentManager_26  TotalBytesDownloaded:vector  ETV
attr source ContentManager_TotalBytesDownloaded
attr title "Total of Bytes Downloaded, vector"
attr unit B
976	309646 7956 525202 76627772 36002.65671604137 36137.149540737679 202 16384 3309568 335921152 7.4300384083968e+14
vector 999  BasicTopology.peer[21].bitTorrentApp.bitTorrentClient.contentManager_26  PiecesDownloaded:vector  ETV
attr source ContentManager_PieceDownloaded
attr title "Pieces Downloaded, vector"
999	354530 822 602038 60446297 36003.326352079929 36100.186279415785 24 0 23 276 4324
vector 1001  BasicTopology.peer[21].bitTorrentApp.bitTorrentClient.contentManager_26  TotalBytesUploaded:vector  ETV
attr source ContentManager_TotalBytesUploaded
attr title "Total of Bytes Uploaded, vector"
attr unit B
1001	363414 17134 606112 83203260 36003.337727779902 36166.696501029473 425 16384 6963200 1483161600 6.8931339419648e+15
vector 896  BasicTopology.peer[8].bitTorrentApp.bitTorrentClient.contentManager_26  TotalBytesDownloaded:vector  ETV
attr source ContentManager_TotalBytesDownloaded
attr title "Total of Bytes Downloaded, vector"
attr unit B
896	168258 7571 957090 77469436 36004.319091465074 36139.556648155895 192 16384 3145728 303562752 6.3827508985856e+14
vector 848  BasicTopology.peer[2].bitTorrentApp.bitTorrentClient.contentManager_26  TotalBytesDownloaded:vector  ETV
attr source ContentManager_TotalBytesDownloaded
attr title "Total of Bytes Downloaded, vector"
attr unit B
848	55037 7570 1098025 53406326 36004.741845519541 36086.602861025979 192 16384 3145728 303562752 6.3827508985856e+14
vector 992  BasicTopology.peer[20].bitTorrentApp.bitTorrentClient.contentManager_26  TotalBytesDownloaded:vector  ETV
attr source ContentManager_TotalBytesDownloaded
attr title "Total of Bytes Downloaded, vector"
attr unit B
992	338498 7867 1119923 80864385 36004.801382073315 36152.760598942861 200 16384 3276800 329318400 7.212055396352e+14
vector 975  BasicTopology.peer[18].bitTorrentApp.bitTorrentClient.contentManager_26  PiecesDownloaded:vector  ETV
attr source ContentManager_PieceDownloaded
attr title "Pieces Downloaded, vector"
975	308819 827 1285253 76627772 36005.308383535068 36137.149540737679 24 0 23 276 4324
vector 977  BasicTopology.peer[18].bitTorrentApp.bitTorrentClient.contentManager_26  TotalBytesUploaded:vector  ETV
attr source ContentManager_TotalBytesUploaded
attr title "Total of Bytes Uploaded, vector"
attr unit B
977	317602 5879 1298566 77289200 36005.325734147759 36139.205660149926 150 16384 2457600 185548800 3.050164977664e+14
vector 912  BasicTopology.peer[10].bitTorrentApp.bitTorrentClient.contentManager_26  TotalBytesDownloaded:vector  ETV
attr source ContentManager_TotalBytesDownloaded
attr title "Total of Bytes Downloaded, vector"
attr unit B
912	193145 7534 1330437 79327774 36005.489507002231 36145.815185452755 192 16384 3145728 303562752 6.3827508985856e+14
vector 1024  BasicTopology.peer[24].bitTorrentApp.bitTorrentClient.contentManager_26  TotalBytesDownloaded:vector  ETV
attr source ContentManager_TotalBytesDownloaded
attr title "Total of Bytes Downloaded, vector"
attr unit B
1024	416548 9311 1407491 68183871 36005.633453813048 36115.583085188807 230 16384 3768320 435240960 1.0957951388877e+15
vector 847  BasicTopology.peer[2].bitTorrentApp.bitTorrentClient.contentManager_26  PiecesDownloaded:vector  ETV
attr source ContentManager_PieceDownloaded
attr title "Pieces Downloaded, vector"
847	54211 826 1591682 53406326 36006.099723147961 36086.602861025979 24 0 23 276 4324
vector 849  BasicTopology.peer[2].bitTorrentApp.bitTorrentClient.contentManager_26  TotalBytesUploaded:vector  ETV
attr source ContentManager_TotalBytesUploaded
attr title "Total of Bytes Uploaded, vector"
attr unit B
849	62607 13806 1610406 62015076 36006.139365968914 36103.209750826473 349 16384 5718016 1000652800 3.8199640457216e+15
vector 928  BasicTopology.peer[12].bitTorrentApp.bitTorrentClient.contentManager_26  TotalBytesDownloaded:vector  ETV
attr source ContentManager_TotalBytesDownloaded
attr title "Total of Bytes Downloaded, vector"
attr unit B
928	237404 7578 1636215 77525343 36006.200498234412 36139.710857709922 192 16384 3145728 303562752 6.3827508985856e+14
vector 936  BasicTopology.peer[13].bitTorrentApp.bitTorrentClient.contentManager_26  TotalBytesDownloaded:vector  ETV
attr source ContentManager_TotalBytesDownloaded
attr title "Total of Bytes Downloaded, vector"
attr unit B
936	253072 7730 1662912 81600116 36006.27509248023 36155.286760498053 196 16384 3211264 316309504 6.7889635367322e+14
vector 984  BasicTopology.peer[19].bitTorrentApp.bitTorrentClient.contentManager_26  TotalBytesDownloaded:vector  ETV
attr source ContentManager_TotalBytesDownloaded
attr title "Total of Bytes Downloaded, vector"
attr unit B
984	324304 9566 1848247 82280514 36006.714955977869 36158.422489495307 242 16384 3964928 481738752 1.2760039135642e+15
vector 927  BasicTopology.peer[12].bitTorrentApp.bitTorrentClient.contentManager_26  PiecesDownloaded:vector  ETV
attr source ContentManager_PieceDownloaded
attr title "Pieces Downloaded, vector"
927	236577 827 2073717 77525343 36007.366472556984 36139.710857709922 24 0 23 276 4324
vector 929  BasicTopology.peer[12].bitTorrentApp.bitTorrentClient.contentManager_26  TotalBytesUploaded:vector  ETV
attr source ContentManager_TotalBytesUploaded
attr title "Total of Bytes Uploaded, vector"
attr unit B
929	244982 7268 2089682 81555416 36007.421739087017 36154.935424200594 185 16384 3031040 281886720 5.7114609319936e+14
vector 920  BasicTopology.peer[11].bitTorrentApp.bitTorrentClient.contentManager_26  TotalBytesDownloaded:vector  ETV
attr source ContentManager_TotalBytesDownloaded
attr title "Total of Bytes Downloaded, vector"
attr unit B
920	215291 7553 2129038 82370664 36007.51154445161 36158.670991278129 192 16384 3145728 303562752 6.3827508985856e+14
vector 880  BasicTopology.peer[6].bitTorrentApp.bitTorrentClient.contentManager_26  TotalBytesDownloaded:vector  ETV
attr source ContentManager_TotalBytesDownloaded
attr title "Total of Bytes Downloaded, vector"
attr unit B
880	138150 7594 2254643 73936874 36007.713276593718 36129.491623321019 192 16384 3145728 303562752 6.3827508985856e+14
vector 911  BasicTopology.peer[10].bitTorrentApp.bitTorrentClient.contentManager_26  PiecesDownloaded:vector  ETV
attr source ContentManager_PieceDownloaded
attr title "Pieces Downloaded, vector"
911	192324 821 2271216 79327774 36007.733587357045 36145.815185452755 24 0 23 276 4324
vector 960  BasicTopology.peer[16].bitTorrentApp.bitTorrentClient.contentManager_26  TotalBytesDownloaded:vector  ETV
attr source ContentManager_TotalBytesDownloaded
attr title "Total of Bytes Downloaded, vector"
attr unit B
960	288093 8125 2271518 79772479 36007.733830467491 36148.961038301459 206 16384 3375104 349323264 7.879093345321e+14
vector 935  BasicTopology.peer[13].bitTorrentApp.bitTorrentClient.contentManager_26  PiecesDownloaded:vector  ETV
attr source ContentManager_PieceDownloaded
attr title "Pieces Downloaded, vector"
935	252250 822 2298616 81600116 36007.765518203265 36155.286760498053 24 0 23 276 4324
vector 913  BasicTopology.peer[10].bitTorrentApp.bitTorrentClient.contentManager_26  TotalBytesUploaded:vector  ETV
attr source ContentManager_TotalBytesUploaded
attr title "Total of Bytes Uploaded, vector"
attr unit B
913	200679 13792 2300145 80423866 36007.766841015846 36151.463325569381 349 16384 5718016 1000652800 3.8199640457216e+15
vector 937  BasicTopology.peer[13].bitTorrentApp.bitTorrentClient.contentManager_26  TotalBytesUploaded:vector  ETV
attr source ContentManager_TotalBytesUploaded
attr title "Total of Bytes Uploaded, vector"
attr unit B
937	260802 2138 2327240 57197442 36007.799443457139 36093.976941251321 56 16384 917504 26148864 16137265872896
vector 840  BasicTopology.peer[1].bitTorrentApp.bitTorrentClient.contentManager_26  TotalBytesDownloaded:vector  ETV
attr source ContentManager_TotalBytesDownloaded
attr title "Total of Bytes Downloaded, vector"
attr unit B
840	37762 8001 2416565 67527637 36007.912691432847 36114.276575809481 203 16384 3325952 339247104 7.5406579754598e+14
vector 879  BasicTopology.peer[6].bitTorrentApp.bitTorrentClient.contentManager_26  PiecesDownloaded:vector  ETV
attr source ContentManager_PieceDownloaded
attr title "Pieces Downloaded, vector"
879	137322 828 2518309 73936874 36008.113587245473 36129.491623321019 24 0 23 276 4324
vector 881  BasicTopology.peer[6].bitTorrentApp.bitTorrentClient.contentManager_26  TotalBytesUploaded:vector  ETV
attr source ContentManager_TotalBytesUploaded
attr title "Total of Bytes Uploaded, vector"
attr unit B
881	145744 7403 2537403 59054177 36008.1371507705 36097.630782474048 188 16384 3080192 291078144 5.9930738845286e+14
vector 919  BasicTopology.peer[11].bitTorrentApp.bitTorrentClient.contentManager_26  PiecesDownloaded:vector  ETV
attr source ContentManager_PieceDownloaded
attr title "Pieces Downloaded, vector"
919	214471 820 2710838 82370664 36008.587368248398 36158.670991278129 24 0 23 276 4324
vector 921  BasicTopology.peer[11].bitTorrentApp.bitTorrentClient.contentManager_26  TotalBytesUploaded:vector  ETV
attr source ContentManager_TotalBytesUploaded
attr title "Total of Bytes Uploaded, vector"
attr unit B
921	222844 13733 2727421 74574987 36008.617062217902 36131.22948473584 348 16384 5701632 994934784 3.7872683387453e+15
vector 991  BasicTopology.peer[20].bitTorrentApp.bitTorrentClient.contentManager_26  PiecesDownloaded:vector  ETV
attr source ContentManager_PieceDownloaded
attr title "Pieces Downloaded, vector"
991	337675 823 2872358 80864385 36008.90434061326 36152.760598942861 24 0 23 276 4324
vector 983  BasicTopology.peer[19].bitTorrentApp.bitTorrentClient.contentManager_26  PiecesDownloaded:vector  ETV
attr source ContentManager_PieceDownloaded
attr title "Pieces Downloaded, vector"
983	323481 823 2885024 82280514 36008.919722283473 36158.422489495307 24 0 23 276 4324
vector 985  BasicTopology.peer[19].bitTorrentApp.bitTorrentClient.contentManager_26  TotalBytesUploaded:vector  ETV
attr source ContentManager_TotalBytesUploaded
attr title "Total of Bytes Uploaded, vector"
attr unit B
985	333870 3805 2893501 82488350 36008.940516420778 36159.644365730933 98 16384 1605632 79478784 85509846073344
vector 1023  BasicTopology.peer[24].bitTorrentApp.bitTorrentClient.contentManager_26  PiecesDownloaded:vector  ETV
attr source ContentManager_PieceDownloaded
attr title "Pieces Downloaded, vector"
1023	415696 852 2992981 68183871 36009.104666069787 36115.583085188807 24 0 23 276 4324
vector 1025  BasicTopology.peer[24].bitTorrentApp.bitTorrentClient.contentManager_26  TotalBytesUploaded:vector  ETV
attr source ContentManager_TotalBytesUploaded
attr title "Total of Bytes Uploaded, vector"
attr unit B
1025	425859 5640 3013910 49597171 36009.143401091627 36079.723836673537 140 16384 2293760 161710080 2.4816589471744e+14
vector 872  BasicTopology.peer[5].bitTorrentApp.bitTorrentClient.contentManager_26  TotalBytesDownloaded:vector  ETV
attr source ContentManager_TotalBytesDownloaded
attr title "Total of Bytes Downloaded, vector"
attr unit B
872	114623 8448 3015463 79976441 36009.147554983904 36149.468841359391 214 16384 3506176 376913920 8.8307614613504e+14
vector 856  BasicTopology.peer[3].bitTorrentApp.bitTorrentClient.contentManager_26  TotalBytesDownloaded:vector  ETV
attr source ContentManager_TotalBytesDownloaded
attr title "Total of Bytes Downloaded, vector"
attr unit B
856	77238 7565 3063787 57699272 36009.281218489517 36094.970523580627 192 16384 3145728 303562752 6.3827508985856e+14
vector 888  BasicTopology.peer[7].bitTorrentApp.bitTorrentClient.contentManager_26  TotalBytesDownloaded:vector  ETV
attr source ContentManager_TotalBytesDownloaded
attr title "Total of Bytes Downloaded, vector"
attr unit B
888	153973 8776 3127817 76493255 36009.391605090636 36136.834379355283 222 16384 3637248 405553152 9.8561312161792e+14
vector 944  BasicTopology.peer[14].bitTorrentApp.bitTorrentClient.contentManager_26  TotalBytesDownloaded:vector  ETV
attr source ContentManager_TotalBytesDownloaded
attr title "Total of Bytes Downloaded, vector"
attr unit B
944	263761 7572 3197117 81055294 36009.474584456852 36153.0766371767 192 16384 3145728 303562752 6.3827508985856e+14
vector 839  BasicTopology.peer[1].bitTorrentApp.bitTorrentClient.contentManager_26  PiecesDownloaded:vector  ETV
attr source ContentManager_PieceDownloaded
attr title "Pieces Downloaded, vector"
839	36938 824 3233976 67527637 36009.533706147156 36114.276575809481 24 0 23 276 4324
vector 904  BasicTopology.peer[9].bitTorrentApp.bitTorrentClient.contentManager_26  TotalBytesDownloaded:vector  ETV
attr source ContentManager_TotalBytesDownloaded
attr title "Total of Bytes Downloaded, vector"
attr unit B
904	179519 7573 3272381 82586715 36009.615636671945 36159.923596207509 192 16384 3145728 303562752 6.3827508985856e+14
vector 943  BasicTopology.peer[14].bitTorrentApp.bitTorrentClient.contentManager_26  PiecesDownloaded:vector  ETV
attr source ContentManager_PieceDownloaded
attr title "Pieces Downloaded, vector"
943	262940 821 3403783 81055294 36009.8114840475 36153.0766371767 24 0 23 276 4324
vector 945  BasicTopology.peer[14].bitTorrentApp.bitTorrentClient.contentManager_26  TotalBytesUploaded:vector  ETV
attr source ContentManager_TotalBytesUploaded
attr title "Total of Bytes Uploaded, vector"
attr unit B
945	271333 3386 3423068 79384949 36009.837308547614 36147.099271071281 87 16384 1425408 62717952 59941637324800
vector 903  BasicTopology.peer[9].bitTorrentApp.bitTorrentClient.contentManager_26  PiecesDownloaded:vector  ETV
attr source ContentManager_PieceDownloaded
attr title "Pieces Downloaded, vector"
903	178695 824 3548390 82586715 36010.001363734783 36159.923596207509 24 0 23 276 4324
vector 993  BasicTopology.peer[20].bitTorrentApp.bitTorrentClient.contentManager_26  TotalBytesUploaded:vector  ETV
attr source ContentManager_TotalBytesUploaded
attr title "Total of Bytes Uploaded, vector"
attr unit B
993	346365 8165 3641088 70493593 36010.089184175794 36121.404615195153 208 16384 3407872 356122624 8.1102511695462e+14
vector 841  BasicTopology.peer[1].bitTorrentApp.bitTorrentClient.contentManager_26  TotalBytesUploaded:vector  ETV
attr source ContentManager_TotalBytesUploaded
attr title "Total of Bytes Uploaded, vector"
attr unit B
841	45763 8448 3647561 68434513 36010.097099828126 36116.090947486795 215 16384 3522560 380436480 8.9548457508864e+14
vector 952  BasicTopology.peer[15].bitTorrentApp.bitTorrentClient.contentManager_26  TotalBytesDownloaded:vector  ETV
attr source ContentManager_TotalBytesDownloaded
attr title "Total of Bytes Downloaded, vector"
attr unit B
952	275543 7961 3828438 77976379 36010.380668850233 36141.67309282165 202 16384 3309568 335921152 7.4300384083968e+14
vector 1016  BasicTopology.peer[23].bitTorrentApp.bitTorrentClient.contentManager_26  TotalBytesDownloaded:vector  ETV
attr source ContentManager_TotalBytesDownloaded
attr title "Total of Bytes Downloaded, vector"
attr unit B
1016	399200 8179 3921205 63843108 36010.515312552413 36106.918330926392 202 16384 3309568 335921152 7.4300384083968e+14
vector 855  BasicTopology.peer[3].bitTorrentApp.bitTorrentClient.contentManager_26  PiecesDownloaded:vector  ETV
attr source ContentManager_PieceDownloaded
attr title "Pieces Downloaded, vector"
855	76413 825 3988471 57699272 36010.621736639123 36094.970523580627 24 0 23 276 4324
vector 1015  BasicTopology.peer[23].bitTorrentApp.bitTorrentClient.contentManager_26  PiecesDownloaded:vector  ETV
attr source ContentManager_PieceDownloaded
attr title "Pieces Downloaded, vector"
1015	398354 846 4054954 63843108 36010.777006215145 36106.918330926392 24 0 23 276 4324
vector 864  BasicTopology.peer[4].bitTorrentApp.bitTorrentClient.contentManager_26  TotalBytesDownloaded:vector  ETV
attr source ContentManager_TotalBytesDownloaded
attr title "Total of Bytes Downloaded, vector"
attr unit B
864	97045 9010 4192308 74664717 36011.132853910557 36131.411170059381 228 16384 3735552 427720704 1.0675178795172e+15
vector 895  BasicTopology.peer[8].bitTorrentApp.bitTorrentClient.contentManager_26  PiecesDownloaded:vector  ETV
attr source ContentManager_PieceDownloaded
attr title "Pieces Downloaded, vector"
895	167433 825 4243377 77469436 36011.215000258597 36139.556648155895 24 0 23 276 4324
vector 897  BasicTopology.peer[8].bitTorrentApp.bitTorrentClient.contentManager_26  TotalBytesUploaded:vector  ETV
attr source ContentManager_TotalBytesUploaded
attr title "Total of Bytes Uploaded, vector"
attr unit B
897	175829 2866 4513931 53148059 36011.635472045273 36086.164496818475 74 16384 1212416 45465600 36997116723200
vector 871  BasicTopology.peer[5].bitTorrentApp.bitTorrentClient.contentManager_26  PiecesDownloaded:vector  ETV
attr source ContentManager_PieceDownloaded
attr title "Pieces Downloaded, vector"
871	113799 824 4685987 79976441 36011.910163923777 36149.468841359391 24 0 23 276 4324
vector 873  BasicTopology.peer[5].bitTorrentApp.bitTorrentClient.contentManager_26  TotalBytesUploaded:vector  ETV
attr source ContentManager_TotalBytesUploaded
attr title "Total of Bytes Uploaded, vector"
attr unit B
873	123071 14251 4700296 80948151 36011.931350053864 36152.891700606569 360 16384 5898240 1064632320 4.1921189353882e+15
vector 959  BasicTopology.peer[16].bitTorrentApp.bitTorrentClient.contentManager_26  PiecesDownloaded:vector  ETV
attr source ContentManager_PieceDownloaded
attr title "Pieces Downloaded, vector"
959	287268 825 4821009 79772479 36012.121161458684 36148.961038301459 24 0 23 276 4324
vector 1008  BasicTopology.peer[22].bitTorrentApp.bitTorrentClient.contentManager_26  TotalBytesDownloaded:vector  ETV
attr source ContentManager_TotalBytesDownloaded
attr title "Total of Bytes Downloaded, vector"
attr unit B
1008	381393 7861 4863458 81351609 36012.202837537782 36154.14750746521 195 16384 3194880 313098240 6.6858413719552e+14
vector 863  BasicTopology.peer[4].bitTorrentApp.bitTorrentClient.contentManager_26  PiecesDownloaded:vector  ETV
attr source ContentManager_PieceDownloaded
attr title "Pieces Downloaded, vector"
863	96219 826 5001701 74664717 36012.495322291299 36131.411170059381 24 0 23 276 4324
vector 905  BasicTopology.peer[9].bitTorrentApp.bitTorrentClient.contentManager_26  TotalBytesUploaded:vector  ETV
attr source ContentManager_TotalBytesUploaded
attr title "Total of Bytes Uploaded, vector"
attr unit B
905	187092 5232 5072731 59866178 36012.674893644522 36099.127250719697 133 16384 2179072 145997824 2.1289052300902e+14
vector 857  BasicTopology.peer[3].bitTorrentApp.bitTorrentClient.contentManager_26  TotalBytesUploaded:vector  ETV
attr source ContentManager_TotalBytesUploaded
attr title "Total of Bytes Uploaded, vector"
attr unit B
857	84803 11416 5224311 57409678 36012.88307065578 36094.396315745523 289 16384 4734976 686571520 2.1710160422502e+15
vector 968  BasicTopology.peer[17].bitTorrentApp.bitTorrentClient.contentManager_26  TotalBytesDownloaded:vector  ETV
attr source ContentManager_TotalBytesDownloaded
attr title "Total of Bytes Downloaded, vector"
attr unit B
968	299293 8135 5478828 83463153 36013.240074583085 36168.313277293872 206 16384 3375104 349323264 7.879093345321e+14
vector 967  BasicTopology.peer[17].bitTorrentApp.bitTorrentClient.contentManager_26  PiecesDownloaded:vector  ETV
attr source ContentManager_PieceDownloaded
attr title "Pieces Downloaded, vector"
967	298470 823 5743300 83463153 36013.547428535724 36168.313277293872 24 0 23 276 4324
vector 887  BasicTopology.peer[7].bitTorrentApp.bitTorrentClient.contentManager_26  PiecesDownloaded:vector  ETV
attr source ContentManager_PieceDownloaded
attr title "Pieces Downloaded, vector"
887	153147 826 5774014 76282625 36013.585702751915 36136.412605901243 24 0 23 276 4324
vector 1007  BasicTopology.peer[22].bitTorrentApp.bitTorrentClient.contentManager_26  PiecesDownloaded:vector  ETV
attr source ContentManager_PieceDownloaded
attr title "Pieces Downloaded, vector"
1007	380548 845 5872130 81351609 36013.720812583647 36154.14750746521 24 0 23 276 4324
vector 1009  BasicTopology.peer[22].bitTorrentApp.bitTorrentClient.contentManager_26  TotalBytesUploaded:vector  ETV
attr source ContentManager_TotalBytesUploaded
attr title "Total of Bytes Uploaded, vector"
attr unit B
1009	389254 9100 5894688 81573598 36013.76058338013 36155.195144035636 225 16384 3686400 416563200 1.0260207108096e+15
vector 865  BasicTopology.peer[4].bitTorrentApp.bitTorrentClient.contentManager_26  TotalBytesUploaded:vector  ETV
attr source ContentManager_TotalBytesUploaded
attr title "Total of Bytes Uploaded, vector"
attr unit B
865	106055 7744 6762753 72897714 36015.155452870219 36126.703866199286 196 16384 3211264 316309504 6.7889635367322e+14
vector 951  BasicTopology.peer[15].bitTorrentApp.bitTorrentClient.contentManager_26  PiecesDownloaded:vector  ETV
attr source ContentManager_PieceDownloaded
attr title "Pieces Downloaded, vector"
951	274719 824 9059999 77976379 36018.827176481999 36141.67309282165 24 0 23 276 4324
vector 961  BasicTopology.peer[16].bitTorrentApp.bitTorrentClient.contentManager_26  TotalBytesUploaded:vector  ETV
attr source ContentManager_TotalBytesUploaded
attr title "Total of Bytes Uploaded, vector"
attr unit B
961	296218 2252 14889922 56788219 36027.950662703455 36093.209553412106 58 16384 950272 28033024 17912429543424