version 2
run Test-17-20200422-00:26:03-3155
attr configname Test
attr datetime 20200422-00:26:03
attr experiment "\"Simulation Test\""
attr inifile BasicConfig.ini
attr iterationvars ""
attr iterationvars2 $repetition=17
attr measurement "\"Peers: $peers, Rate: $rate\""
attr network BasicTopology
attr processid 3155
attr repetition 17
attr replication #17
attr resultdir results
attr runnumber 17
attr seedset 17

vector 3  BasicTopology.peer[1].bitTorrentApp.bitTorrentClient  DownloadComplete_Test:vector  ETV
attr source  BitTorrentClient_DownloadComplete_Test
attr title  "Descargas completas (prueba), vector"
vector 5  BasicTopology.peer[2].bitTorrentApp.bitTorrentClient  DownloadComplete_Test:vector  ETV
attr source  BitTorrentClient_DownloadComplete_Test
attr title  "Descargas completas (prueba), vector"
vector 7  BasicTopology.peer[3].bitTorrentApp.bitTorrentClient  DownloadComplete_Test:vector  ETV
attr source  BitTorrentClient_DownloadComplete_Test
attr title  "Descargas completas (prueba), vector"
vector 9  BasicTopology.peer[4].bitTorrentApp.bitTorrentClient  DownloadComplete_Test:vector  ETV
attr source  BitTorrentClient_DownloadComplete_Test
attr title  "Descargas completas (prueba), vector"
vector 11  BasicTopology.peer[5].bitTorrentApp.bitTorrentClient  DownloadComplete_Test:vector  ETV
attr source  BitTorrentClient_DownloadComplete_Test
attr title  "Descargas completas (prueba), vector"
vector 13  BasicTopology.peer[6].bitTorrentApp.bitTorrentClient  DownloadComplete_Test:vector  ETV
attr source  BitTorrentClient_DownloadComplete_Test
attr title  "Descargas completas (prueba), vector"
vector 15  BasicTopology.peer[7].bitTorrentApp.bitTorrentClient  DownloadComplete_Test:vector  ETV
attr source  BitTorrentClient_DownloadComplete_Test
attr title  "Descargas completas (prueba), vector"
vector 17  BasicTopology.peer[8].bitTorrentApp.bitTorrentClient  DownloadComplete_Test:vector  ETV
attr source  BitTorrentClient_DownloadComplete_Test
attr title  "Descargas completas (prueba), vector"
vector 19  BasicTopology.peer[9].bitTorrentApp.bitTorrentClient  DownloadComplete_Test:vector  ETV
attr source  BitTorrentClient_DownloadComplete_Test
attr title  "Descargas completas (prueba), vector"
vector 21  BasicTopology.peer[10].bitTorrentApp.bitTorrentClient  DownloadComplete_Test:vector  ETV
attr source  BitTorrentClient_DownloadComplete_Test
attr title  "Descargas completas (prueba), vector"
vector 23  BasicTopology.peer[11].bitTorrentApp.bitTorrentClient  DownloadComplete_Test:vector  ETV
attr source  BitTorrentClient_DownloadComplete_Test
attr title  "Descargas completas (prueba), vector"
vector 25  BasicTopology.peer[12].bitTorrentApp.bitTorrentClient  DownloadComplete_Test:vector  ETV
attr source  BitTorrentClient_DownloadComplete_Test
attr title  "Descargas completas (prueba), vector"
vector 27  BasicTopology.peer[13].bitTorrentApp.bitTorrentClient  DownloadComplete_Test:vector  ETV
attr source  BitTorrentClient_DownloadComplete_Test
attr title  "Descargas completas (prueba), vector"
vector 29  BasicTopology.peer[14].bitTorrentApp.bitTorrentClient  DownloadComplete_Test:vector  ETV
attr source  BitTorrentClient_DownloadComplete_Test
attr title  "Descargas completas (prueba), vector"
vector 31  BasicTopology.peer[15].bitTorrentApp.bitTorrentClient  DownloadComplete_Test:vector  ETV
attr source  BitTorrentClient_DownloadComplete_Test
attr title  "Descargas completas (prueba), vector"
vector 33  BasicTopology.peer[16].bitTorrentApp.bitTorrentClient  DownloadComplete_Test:vector  ETV
attr source  BitTorrentClient_DownloadComplete_Test
attr title  "Descargas completas (prueba), vector"
vector 35  BasicTopology.peer[17].bitTorrentApp.bitTorrentClient  DownloadComplete_Test:vector  ETV
attr source  BitTorrentClient_DownloadComplete_Test
attr title  "Descargas completas (prueba), vector"
vector 37  BasicTopology.peer[18].bitTorrentApp.bitTorrentClient  DownloadComplete_Test:vector  ETV
attr source  BitTorrentClient_DownloadComplete_Test
attr title  "Descargas completas (prueba), vector"
vector 39  BasicTopology.peer[19].bitTorrentApp.bitTorrentClient  DownloadComplete_Test:vector  ETV
attr source  BitTorrentClient_DownloadComplete_Test
attr title  "Descargas completas (prueba), vector"
vector 41  BasicTopology.peer[20].bitTorrentApp.bitTorrentClient  DownloadComplete_Test:vector  ETV
attr source  BitTorrentClient_DownloadComplete_Test
attr title  "Descargas completas (prueba), vector"
vector 43  BasicTopology.peer[21].bitTorrentApp.bitTorrentClient  DownloadComplete_Test:vector  ETV
attr source  BitTorrentClient_DownloadComplete_Test
attr title  "Descargas completas (prueba), vector"
vector 45  BasicTopology.peer[22].bitTorrentApp.bitTorrentClient  DownloadComplete_Test:vector  ETV
attr source  BitTorrentClient_DownloadComplete_Test
attr title  "Descargas completas (prueba), vector"
vector 47  BasicTopology.peer[23].bitTorrentApp.bitTorrentClient  DownloadComplete_Test:vector  ETV
attr source  BitTorrentClient_DownloadComplete_Test
attr title  "Descargas completas (prueba), vector"
vector 49  BasicTopology.peer[24].bitTorrentApp.bitTorrentClient  DownloadComplete_Test:vector  ETV
attr source  BitTorrentClient_DownloadComplete_Test
attr title  "Descargas completas (prueba), vector"
vector 833  BasicTopology.peer[0].bitTorrentApp.bitTorrentClient.contentManager_26  TotalBytesUploaded:vector  ETV
attr source  ContentManager_TotalBytesUploaded
attr title  "Total of Bytes Uploaded, vector"
attr unit  B
vector 1000  BasicTopology.peer[21].bitTorrentApp.bitTorrentClient.contentManager_26  TotalBytesDownloaded:vector  ETV
attr source  ContentManager_TotalBytesDownloaded
attr title  "Total of Bytes Downloaded, vector"
attr unit  B
vector 999  BasicTopology.peer[21].bitTorrentApp.bitTorrentClient.contentManager_26  PiecesDownloaded:vector  ETV
attr source  ContentManager_PieceDownloaded
attr title  "Pieces Downloaded, vector"
vector 840  BasicTopology.peer[1].bitTorrentApp.bitTorrentClient.contentManager_26  TotalBytesDownloaded:vector  ETV
attr source  ContentManager_TotalBytesDownloaded
attr title  "Total of Bytes Downloaded, vector"
attr unit  B
vector 1001  BasicTopology.peer[21].bitTorrentApp.bitTorrentClient.contentManager_26  TotalBytesUploaded:vector  ETV
attr source  ContentManager_TotalBytesUploaded
attr title  "Total of Bytes Uploaded, vector"
attr unit  B
vector 880  BasicTopology.peer[6].bitTorrentApp.bitTorrentClient.contentManager_26  TotalBytesDownloaded:vector  ETV
attr source  ContentManager_TotalBytesDownloaded
attr title  "Total of Bytes Downloaded, vector"
attr unit  B
vector 839  BasicTopology.peer[1].bitTorrentApp.bitTorrentClient.contentManager_26  PiecesDownloaded:vector  ETV
attr source  ContentManager_PieceDownloaded
attr title  "Pieces Downloaded, vector"
vector 841  BasicTopology.peer[1].bitTorrentApp.bitTorrentClient.contentManager_26  TotalBytesUploaded:vector  ETV
attr source  ContentManager_TotalBytesUploaded
attr title  "Total of Bytes Uploaded, vector"
attr unit  B
vector 952  BasicTopology.peer[15].bitTorrentApp.bitTorrentClient.contentManager_26  TotalBytesDownloaded:vector  ETV
attr source  ContentManager_TotalBytesDownloaded
attr title  "Total of Bytes Downloaded, vector"
attr unit  B
vector 848  BasicTopology.peer[2].bitTorrentApp.bitTorrentClient.contentManager_26  TotalBytesDownloaded:vector  ETV
attr source  ContentManager_TotalBytesDownloaded
attr title  "Total of Bytes Downloaded, vector"
attr unit  B
vector 847  BasicTopology.peer[2].bitTorrentApp.bitTorrentClient.contentManager_26  PiecesDownloaded:vector  ETV
attr source  ContentManager_PieceDownloaded
attr title  "Pieces Downloaded, vector"
vector 849  BasicTopology.peer[2].bitTorrentApp.bitTorrentClient.contentManager_26  TotalBytesUploaded:vector  ETV
attr source  ContentManager_TotalBytesUploaded
attr title  "Total of Bytes Uploaded, vector"
attr unit  B
vector 944  BasicTopology.peer[14].bitTorrentApp.bitTorrentClient.contentManager_26  TotalBytesDownloaded:vector  ETV
attr source  ContentManager_TotalBytesDownloaded
attr title  "Total of Bytes Downloaded, vector"
attr unit  B
vector 912  BasicTopology.peer[10].bitTorrentApp.bitTorrentClient.contentManager_26  TotalBytesDownloaded:vector  ETV
attr source  ContentManager_TotalBytesDownloaded
attr title  "Total of Bytes Downloaded, vector"
attr unit  B
vector 879  BasicTopology.peer[6].bitTorrentApp.bitTorrentClient.contentManager_26  PiecesDownloaded:vector  ETV
attr source  ContentManager_PieceDownloaded
attr title  "Pieces Downloaded, vector"
vector 881  BasicTopology.peer[6].bitTorrentApp.bitTorrentClient.contentManager_26  TotalBytesUploaded:vector  ETV
attr source  ContentManager_TotalBytesUploaded
attr title  "Total of Bytes Uploaded, vector"
attr unit  B
vector 936  BasicTopology.peer[13].bitTorrentApp.bitTorrentClient.contentManager_26  TotalBytesDownloaded:vector  ETV
attr source  ContentManager_TotalBytesDownloaded
attr title  "Total of Bytes Downloaded, vector"
attr unit  B
vector 856  BasicTopology.peer[3].bitTorrentApp.bitTorrentClient.contentManager_26  TotalBytesDownloaded:vector  ETV
attr source  ContentManager_TotalBytesDownloaded
attr title  "Total of Bytes Downloaded, vector"
attr unit  B
vector 1024  BasicTopology.peer[24].bitTorrentApp.bitTorrentClient.contentManager_26  TotalBytesDownloaded:vector  ETV
attr source  ContentManager_TotalBytesDownloaded
attr title  "Total of Bytes Downloaded, vector"
attr unit  B
vector 1008  BasicTopology.peer[22].bitTorrentApp.bitTorrentClient.contentManager_26  TotalBytesDownloaded:vector  ETV
attr source  ContentManager_TotalBytesDownloaded
attr title  "Total of Bytes Downloaded, vector"
attr unit  B
vector 1007  BasicTopology.peer[22].bitTorrentApp.bitTorrentClient.contentManager_26  PiecesDownloaded:vector  ETV
attr source  ContentManager_PieceDownloaded
attr title  "Pieces Downloaded, vector"
vector 992  BasicTopology.peer[20].bitTorrentApp.bitTorrentClient.contentManager_26  TotalBytesDownloaded:vector  ETV
attr source  ContentManager_TotalBytesDownloaded
attr title  "Total of Bytes Downloaded, vector"
attr unit  B
vector 1009  BasicTopology.peer[22].bitTorrentApp.bitTorrentClient.contentManager_26  TotalBytesUploaded:vector  ETV
attr source  ContentManager_TotalBytesUploaded
attr title  "Total of Bytes Uploaded, vector"
attr unit  B
vector 864  BasicTopology.peer[4].bitTorrentApp.bitTorrentClient.contentManager_26  TotalBytesDownloaded:vector  ETV
attr source  ContentManager_TotalBytesDownloaded
attr title  "Total of Bytes Downloaded, vector"
attr unit  B
vector 896  BasicTopology.peer[8].bitTorrentApp.bitTorrentClient.contentManager_26  TotalBytesDownloaded:vector  ETV
attr source  ContentManager_TotalBytesDownloaded
attr title  "Total of Bytes Downloaded, vector"
attr unit  B
vector 895  BasicTopology.peer[8].bitTorrentApp.bitTorrentClient.contentManager_26  PiecesDownloaded:vector  ETV
attr source  ContentManager_PieceDownloaded
attr title  "Pieces Downloaded, vector"
vector 897  BasicTopology.peer[8].bitTorrentApp.bitTorrentClient.contentManager_26  TotalBytesUploaded:vector  ETV
attr source  ContentManager_TotalBytesUploaded
attr title  "Total of Bytes Uploaded, vector"
attr unit  B
vector 904  BasicTopology.peer[9].bitTorrentApp.bitTorrentClient.contentManager_26  TotalBytesDownloaded:vector  ETV
attr source  ContentManager_TotalBytesDownloaded
attr title  "Total of Bytes Downloaded, vector"
attr unit  B
vector 928  BasicTopology.peer[12].bitTorrentApp.bitTorrentClient.contentManager_26  TotalBytesDownloaded:vector  ETV
attr source  ContentManager_TotalBytesDownloaded
attr title  "Total of Bytes Downloaded, vector"
attr unit  B
vector 872  BasicTopology.peer[5].bitTorrentApp.bitTorrentClient.contentManager_26  TotalBytesDownloaded:vector  ETV
attr source  ContentManager_TotalBytesDownloaded
attr title  "Total of Bytes Downloaded, vector"
attr unit  B
vector 871  BasicTopology.peer[5].bitTorrentApp.bitTorrentClient.contentManager_26  PiecesDownloaded:vector  ETV
attr source  ContentManager_PieceDownloaded
attr title  "Pieces Downloaded, vector"
vector 911  BasicTopology.peer[10].bitTorrentApp.bitTorrentClient.contentManager_26  PiecesDownloaded:vector  ETV
attr source  ContentManager_PieceDownloaded
attr title  "Pieces Downloaded, vector"
vector 913  BasicTopology.peer[10].bitTorrentApp.bitTorrentClient.contentManager_26  TotalBytesUploaded:vector  ETV
attr source  ContentManager_TotalBytesUploaded
attr title  "Total of Bytes Uploaded, vector"
attr unit  B
vector 888  BasicTopology.peer[7].bitTorrentApp.bitTorrentClient.contentManager_26  TotalBytesDownloaded:vector  ETV
attr source  ContentManager_TotalBytesDownloaded
attr title  "Total of Bytes Downloaded, vector"
attr unit  B
vector 920  BasicTopology.peer[11].bitTorrentApp.bitTorrentClient.contentManager_26  TotalBytesDownloaded:vector  ETV
attr source  ContentManager_TotalBytesDownloaded
attr title  "Total of Bytes Downloaded, vector"
attr unit  B
vector 863  BasicTopology.peer[4].bitTorrentApp.bitTorrentClient.contentManager_26  PiecesDownloaded:vector  ETV
attr source  ContentManager_PieceDownloaded
attr title  "Pieces Downloaded, vector"
vector 968  BasicTopology.peer[17].bitTorrentApp.bitTorrentClient.contentManager_26  TotalBytesDownloaded:vector  ETV
attr source  ContentManager_TotalBytesDownloaded
attr title  "Total of Bytes Downloaded, vector"
attr unit  B
vector 1016  BasicTopology.peer[23].bitTorrentApp.bitTorrentClient.contentManager_26  TotalBytesDownloaded:vector  ETV
attr source  ContentManager_TotalBytesDownloaded
attr title  "Total of Bytes Downloaded, vector"
attr unit  B
vector 960  BasicTopology.peer[16].bitTorrentApp.bitTorrentClient.contentManager_26  TotalBytesDownloaded:vector  ETV
attr source  ContentManager_TotalBytesDownloaded
attr title  "Total of Bytes Downloaded, vector"
attr unit  B
vector 984  BasicTopology.peer[19].bitTorrentApp.bitTorrentClient.contentManager_26  TotalBytesDownloaded:vector  ETV
attr source  ContentManager_TotalBytesDownloaded
attr title  "Total of Bytes Downloaded, vector"
attr unit  B
vector 935  BasicTopology.peer[13].bitTorrentApp.bitTorrentClient.contentManager_26  PiecesDownloaded:vector  ETV
attr source  ContentManager_PieceDownloaded
attr title  "Pieces Downloaded, vector"
vector 991  BasicTopology.peer[20].bitTorrentApp.bitTorrentClient.contentManager_26  PiecesDownloaded:vector  ETV
attr source  ContentManager_PieceDownloaded
attr title  "Pieces Downloaded, vector"
vector 993  BasicTopology.peer[20].bitTorrentApp.bitTorrentClient.contentManager_26  TotalBytesUploaded:vector  ETV
attr source  ContentManager_TotalBytesUploaded
attr title  "Total of Bytes Uploaded, vector"
attr unit  B
vector 967  BasicTopology.peer[17].bitTorrentApp.bitTorrentClient.contentManager_26  PiecesDownloaded:vector  ETV
attr source  ContentManager_PieceDownloaded
attr title  "Pieces Downloaded, vector"
vector 919  BasicTopology.peer[11].bitTorrentApp.bitTorrentClient.contentManager_26  PiecesDownloaded:vector  ETV
attr source  ContentManager_PieceDownloaded
attr title  "Pieces Downloaded, vector"
vector 959  BasicTopology.peer[16].bitTorrentApp.bitTorrentClient.contentManager_26  PiecesDownloaded:vector  ETV
attr source  ContentManager_PieceDownloaded
attr title  "Pieces Downloaded, vector"
vector 1023  BasicTopology.peer[24].bitTorrentApp.bitTorrentClient.contentManager_26  PiecesDownloaded:vector  ETV
attr source  ContentManager_PieceDownloaded
attr title  "Pieces Downloaded, vector"
vector 983  BasicTopology.peer[19].bitTorrentApp.bitTorrentClient.contentManager_26  PiecesDownloaded:vector  ETV
attr source  ContentManager_PieceDownloaded
attr title  "Pieces Downloaded, vector"
vector 951  BasicTopology.peer[15].bitTorrentApp.bitTorrentClient.contentManager_26  PiecesDownloaded:vector  ETV
attr source  ContentManager_PieceDownloaded
attr title  "Pieces Downloaded, vector"
vector 976  BasicTopology.peer[18].bitTorrentApp.bitTorrentClient.contentManager_26  TotalBytesDownloaded:vector  ETV
attr source  ContentManager_TotalBytesDownloaded
attr title  "Total of Bytes Downloaded, vector"
attr unit  B
vector 855  BasicTopology.peer[3].bitTorrentApp.bitTorrentClient.contentManager_26  PiecesDownloaded:vector  ETV
attr source  ContentManager_PieceDownloaded
attr title  "Pieces Downloaded, vector"
vector 927  BasicTopology.peer[12].bitTorrentApp.bitTorrentClient.contentManager_26  PiecesDownloaded:vector  ETV
attr source  ContentManager_PieceDownloaded
attr title  "Pieces Downloaded, vector"
vector 943  BasicTopology.peer[14].bitTorrentApp.bitTorrentClient.contentManager_26  PiecesDownloaded:vector  ETV
attr source  ContentManager_PieceDownloaded
attr title  "Pieces Downloaded, vector"
vector 903  BasicTopology.peer[9].bitTorrentApp.bitTorrentClient.contentManager_26  PiecesDownloaded:vector  ETV
attr source  ContentManager_PieceDownloaded
attr title  "Pieces Downloaded, vector"
vector 887  BasicTopology.peer[7].bitTorrentApp.bitTorrentClient.contentManager_26  PiecesDownloaded:vector  ETV
attr source  ContentManager_PieceDownloaded
attr title  "Pieces Downloaded, vector"
vector 865  BasicTopology.peer[4].bitTorrentApp.bitTorrentClient.contentManager_26  TotalBytesUploaded:vector  ETV
attr source  ContentManager_TotalBytesUploaded
attr title  "Total of Bytes Uploaded, vector"
attr unit  B
vector 1025  BasicTopology.peer[24].bitTorrentApp.bitTorrentClient.contentManager_26  TotalBytesUploaded:vector  ETV
attr source  ContentManager_TotalBytesUploaded
attr title  "Total of Bytes Uploaded, vector"
attr unit  B
vector 975  BasicTopology.peer[18].bitTorrentApp.bitTorrentClient.contentManager_26  PiecesDownloaded:vector  ETV
attr source  ContentManager_PieceDownloaded
attr title  "Pieces Downloaded, vector"
vector 889  BasicTopology.peer[7].bitTorrentApp.bitTorrentClient.contentManager_26  TotalBytesUploaded:vector  ETV
attr source  ContentManager_TotalBytesUploaded
attr title  "Total of Bytes Uploaded, vector"
attr unit  B
vector 873  BasicTopology.peer[5].bitTorrentApp.bitTorrentClient.contentManager_26  TotalBytesUploaded:vector  ETV
attr source  ContentManager_TotalBytesUploaded
attr title  "Total of Bytes Uploaded, vector"
attr unit  B
vector 1015  BasicTopology.peer[23].bitTorrentApp.bitTorrentClient.contentManager_26  PiecesDownloaded:vector  ETV
attr source  ContentManager_PieceDownloaded
attr title  "Pieces Downloaded, vector"
vector 857  BasicTopology.peer[3].bitTorrentApp.bitTorrentClient.contentManager_26  TotalBytesUploaded:vector  ETV
attr source  ContentManager_TotalBytesUploaded
attr title  "Total of Bytes Uploaded, vector"
attr unit  B
vector 905  BasicTopology.peer[9].bitTorrentApp.bitTorrentClient.contentManager_26  TotalBytesUploaded:vector  ETV
attr source  ContentManager_TotalBytesUploaded
attr title  "Total of Bytes Uploaded, vector"
attr unit  B
vector 961  BasicTopology.peer[16].bitTorrentApp.bitTorrentClient.contentManager_26  TotalBytesUploaded:vector  ETV
attr source  ContentManager_TotalBytesUploaded
attr title  "Total of Bytes Uploaded, vector"
attr unit  B
vector 1017  BasicTopology.peer[23].bitTorrentApp.bitTorrentClient.contentManager_26  TotalBytesUploaded:vector  ETV
attr source  ContentManager_TotalBytesUploaded
attr title  "Total of Bytes Uploaded, vector"
attr unit  B
vector 953  BasicTopology.peer[15].bitTorrentApp.bitTorrentClient.contentManager_26  TotalBytesUploaded:vector  ETV
attr source  ContentManager_TotalBytesUploaded
attr title  "Total of Bytes Uploaded, vector"
attr unit  B
vector 937  BasicTopology.peer[13].bitTorrentApp.bitTorrentClient.contentManager_26  TotalBytesUploaded:vector  ETV
attr source  ContentManager_TotalBytesUploaded
attr title  "Total of Bytes Uploaded, vector"
attr unit  B
vector 921  BasicTopology.peer[11].bitTorrentApp.bitTorrentClient.contentManager_26  TotalBytesUploaded:vector  ETV
attr source  ContentManager_TotalBytesUploaded
attr title  "Total of Bytes Uploaded, vector"
attr unit  B
vector 929  BasicTopology.peer[12].bitTorrentApp.bitTorrentClient.contentManager_26  TotalBytesUploaded:vector  ETV
attr source  ContentManager_TotalBytesUploaded
attr title  "Total of Bytes Uploaded, vector"
attr unit  B
vector 977  BasicTopology.peer[18].bitTorrentApp.bitTorrentClient.contentManager_26  TotalBytesUploaded:vector  ETV
attr source  ContentManager_TotalBytesUploaded
attr title  "Total of Bytes Uploaded, vector"
attr unit  B
vector 969  BasicTopology.peer[17].bitTorrentApp.bitTorrentClient.contentManager_26  TotalBytesUploaded:vector  ETV
attr source  ContentManager_TotalBytesUploaded
attr title  "Total of Bytes Uploaded, vector"
attr unit  B
vector 985  BasicTopology.peer[19].bitTorrentApp.bitTorrentClient.contentManager_26  TotalBytesUploaded:vector  ETV
attr source  ContentManager_TotalBytesUploaded
attr title  "Total of Bytes Uploaded, vector"
attr unit  B
3	103	36001	36001
3	20428348	36037.783125150386	36037.78312515
5	104	36001	36001
5	61309797	36106.220220349033	36106.220220349
7	105	36001	36001
7	78756234	36302.500056077061	36302.500056077
9	106	36001	36001
9	77704870	36146.572233088881	36146.572233089
11	107	36001	36001
11	76342543	36139.797396967482	36139.797396967
13	108	36001	36001
13	75960783	36138.874549512844	36138.874549513
15	109	36001	36001
15	70043609	36125.213797646064	36125.213797646
17	110	36001	36001
17	74773673	36136.242202064451	36136.242202064
19	111	36001	36001
19	73603500	36133.229331071899	36133.229331072
21	112	36001	36001
21	68718653	36121.833770123479	36121.833770123
23	113	36001	36001
23	78037474	36147.829558391967	36147.829558392
25	114	36001	36001
25	72176778	36130.130387174876	36130.130387175
27	115	36001	36001
27	69873818	36124.869402390774	36124.869402391
29	116	36001	36001
29	78935522	36304.907542309581	36304.90754231
31	117	36001	36001
31	71504473	36128.541384701059	36128.541384701
33	118	36001	36001
33	78204608	36149.953979803137	36149.953979803
35	119	36001	36001
35	78122363	36147.994263909488	36147.994263909
37	120	36001	36001
37	76289579	36139.58687269263	36139.586872693
39	121	36001	36001
39	77468399	36145.981322433732	36145.981322434
41	122	36001	36001
41	34268502	36060.053497420221	36060.05349742
43	123	36001	36001
43	71055654	36127.520755017809	36127.520755018
45	124	36001	36001
45	67011435	36117.83314464684	36117.833144647
47	125	36001	36001
47	61542248	36106.715861495873	36106.715861496
49	126	36001	36001
49	78980524	36305.597166236932	36305.597166237
833	109465	36001.082616054006	16384
833	114098	36001.087600153066	32768
833	122408	36001.098447944911	49152
833	123823	36001.107874019121	65536
833	124048	36001.108409566189	81920
833	127147	36001.120675000944	98304
833	131150	36001.123276234869	114688
833	145859	36001.135959226247	131072
833	148674	36001.138285935106	147456
833	148836	36001.138397878794	163840
833	260617	36001.557156251585	180224
833	260966	36001.557575455583	196608
833	284730	36001.583910920454	212992
833	290939	36001.598247788803	229376
833	291106	36001.598815254554	245760
833	291291	36001.599357240338	262144
833	294134	36001.609186616518	278528
833	294307	36001.609903046872	294912
833	294557	36001.610780781882	311296
833	294603	36001.610921674712	327680
833	295054	36001.612744519023	344064
833	314289	36001.640789717069	360448
833	471868	36002.456335248171	376832
833	481835	36002.489760062797	393216
833	505897	36002.514133634909	409600
833	689820	36003.221847530426	425984
833	699733	36003.235900358791	442368
833	700817	36003.237375273713	458752
833	708700	36003.26171847895	475136
833	713323	36003.280360617374	491520
833	718517	36003.300329967169	507904
833	719251	36003.302845102943	524288
833	725016	36003.325728039143	540672
833	728035	36003.335890908884	557056
833	728882	36003.338862891708	573440
833	732497	36003.358989002519	589824
833	732524	36003.359303871697	606208
833	736846	36003.371513085236	622592
833	742055	36003.569264306445	638976
833	748433	36003.590593152222	655360
833	756096	36003.615861688279	671744
833	970491	36004.057576630718	688128
833	971280	36004.058189899488	704512
833	972676	36004.059267431315	720896
833	974695	36004.060998497851	737280
833	985133	36004.070573562609	753664
833	993712	36004.078854720787	770048
833	1008652	36004.096640484604	786432
833	1031445	36004.128328700162	802816
833	1043236	36004.141563525642	819200
833	1057011	36004.159618930861	835584
833	1318406	36004.638686052649	851968
833	1319921	36004.640737578093	868352
833	1326344	36004.649038325792	884736
833	1327428	36004.652352015554	901120
833	1337697	36004.673626609905	917504
833	1337827	36004.673892789519	933888
833	1338082	36004.674834399958	950272
833	1340777	36004.681209492589	966656
833	1344469	36004.691828267025	983040
833	1345043	36004.692815589961	999424
833	1364532	36004.735080978457	1015808
833	1385431	36004.797400733011	1032192
833	1397027	36004.834565956884	1048576
833	1404259	36004.856456628445	1064960
833	1411792	36004.881612271833	1081344
833	1419836	36004.908276943926	1097728
833	1432485	36004.949634934138	1114112
833	1445926	36004.994016346644	1130496
833	1446610	36004.996548939029	1146880
833	1606521	36005.432100039149	1163264
833	1669897	36005.538645320396	1179648
833	1714669	36005.608311487032	1196032
833	1905753	36006.047686186137	1212416
833	1913551	36006.069225876274	1228800
833	1928586	36006.102115659709	1245184
833	1941186	36006.134961992434	1261568
833	2059076	36006.420491185987	1277952
833	2062378	36006.428796422379	1294336
833	2065212	36006.434285566721	1310720
833	2065214	36006.434316108061	1327104
833	2070513	36006.446072124383	1343488
833	2076151	36006.460472910349	1359872
833	2081545	36006.471516547917	1376256
833	2086304	36006.483297166628	1392640
833	2087000	36006.485802187254	1409024
833	2094919	36006.506049604859	1425408
833	2103901	36006.525492342455	1441792
833	2106454	36006.530141729592	1458176
833	2134893	36006.58904370158	1474560
833	2376240	36007.058659408285	1490944
833	2457639	36007.166665374705	1507328
833	2471762	36007.190203436995	1523712
833	2501597	36007.234510312965	1540096
833	2507137	36007.25199668614	1556480
833	2527444	36007.292483733589	1572864
833	2539200	36007.323415481362	1589248
833	2543742	36007.335923520857	1605632
833	2743829	36007.655581321185	1622016
833	2766470	36007.692009877162	1638400
833	2780030	36007.715372530578	1654784
833	2793560	36007.737800912435	1671168
833	3087021	36008.403480334156	1687552
833	3813133	36009.796393642331	1703936
833	3850268	36009.850566218325	1720320
833	3879245	36009.891793981595	1736704
833	3947311	36009.995181655192	1753088
833	3993176	36010.032414503715	1769472
833	4095665	36010.134377375701	1785856
833	4117466	36010.168842969855	1802240
833	4689116	36011.228638215771	1818624
833	4699228	36011.256091170494	1835008
833	4843677	36011.477388641219	1851392
833	4898199	36011.555673671068	1867776
833	5224310	36012.28920873959	1884160
833	5225971	36012.29273120296	1900544
833	5226387	36012.293481780354	1916928
833	5226439	36012.293578355474	1933312
833	5230733	36012.306148554326	1949696
833	5240784	36012.327256889727	1966080
833	5247767	36012.343927225458	1982464
833	5374238	36012.632343616584	1998848
833	5393082	36012.667276248143	2015232
833	5433554	36012.728189679951	2031616
833	5472401	36012.775668992799	2048000
833	5527469	36012.864170811116	2064384
833	5553486	36012.900897744479	2080768
833	5911840	36013.628446193644	2097152
833	5945838	36013.702664927619	2113536
833	6101453	36013.972866432217	2129920
833	6176186	36014.084478440402	2146304
833	6216964	36014.136830450132	2162688
833	6432139	36014.600681198483	2179072
833	6459051	36014.671703331392	2195456
833	6462083	36014.682757586591	2211840
833	6477397	36014.721123462746	2228224
833	6487580	36014.74586850688	2244608
833	6510973	36014.780607826984	2260992
833	6544669	36014.834440803818	2277376
833	6572220	36014.879027097677	2293760
833	6612471	36014.9512200373	2310144
833	6643271	36015.011931296229	2326528
833	6673310	36015.083199928909	2342912
833	6705839	36015.157132765406	2359296
833	6735608	36015.219004725263	2375680
833	6770188	36015.266141119235	2392064
833	6797064	36015.302692243406	2408448
833	6813527	36015.327046174831	2424832
833	6833189	36015.353582813799	2441216
833	7442066	36016.410702339547	2457600
833	7472893	36016.45274076239	2473984
833	7489153	36016.477300540744	2490368
833	7524290	36016.531154068315	2506752
833	7854772	36017.166203389211	2523136
833	7918516	36017.252854422027	2539520
833	8074572	36017.533095526355	2555904
833	8094146	36017.566605364677	2572288
833	8126584	36017.618317739798	2588672
833	8147024	36017.649794215393	2605056
833	8157525	36017.665200656202	2621440
833	8189102	36017.739549872041	2637824
833	8258778	36017.865317719926	2654208
833	8513271	36018.333802547891	2670592
833	8561398	36018.401593997374	2686976
833	8622568	36018.485103607724	2703360
833	8757702	36018.731982465373	2719744
833	8792120	36018.778004663742	2736128
833	8830236	36018.834803301231	2752512
833	8883255	36018.898207202128	2768896
833	8914377	36018.932702925726	2785280
833	8981860	36019.00279263773	2801664
833	8987031	36019.008289454423	2818048
833	9013631	36019.041008025814	2834432
833	9022856	36019.054770054136	2850816
833	9047557	36019.088126545206	2867200
833	9066529	36019.113805150888	2883584
833	9087434	36019.138140759305	2899968
833	9107607	36019.163522778227	2916352
833	9140982	36019.208503595717	2932736
833	9169084	36019.24805230855	2949120
833	9671960	36019.995624655158	2965504
833	9841253	36020.317735482198	2981888
833	9848347	36020.327037513887	2998272
833	9850144	36020.329096385611	3014656
833	9870109	36020.352063959976	3031040
833	9893930	36020.381918744925	3047424
833	9913483	36020.405111033324	3063808
833	10513884	36021.436050696386	3080192
833	10524919	36021.46368803071	3096576
833	10554753	36021.509462917	3112960
833	10569572	36021.529067378329	3129344
833	10599365	36021.563184412137	3145728
833	10650824	36021.630385150987	3162112
833	10761946	36021.771334763589	3178496
833	10762811	36021.772821979002	3194880
833	11203022	36022.565287754831	3211264
833	11224140	36022.60884172547	3227648
833	11235645	36022.642735021933	3244032